 Entering Gaussian System, Link 0=g16
 Input=2Mep.n.39.dat
 Output=2Mep.n.39.log
 Initial command:
 /dades/curu/g16A03_MST/g16/l1.exe "/tmp/ubator01/2153950/Gau-106609.inp" -scrdir="/tmp/ubator01/2153950/"
 Entering Link 1 = /dades/curu/g16A03_MST/g16/l1.exe PID=    106610.
  
 Copyright (c) 1988,1990,1992,1993,1995,1998,2003,2009,2016,
            Gaussian, Inc.  All Rights Reserved.
  
 This is part of the Gaussian(R) 16 program.  It is based on
 the Gaussian(R) 09 system (copyright 2009, Gaussian, Inc.),
 the Gaussian(R) 03 system (copyright 2003, Gaussian, Inc.),
 the Gaussian(R) 98 system (copyright 1998, Gaussian, Inc.),
 the Gaussian(R) 94 system (copyright 1995, Gaussian, Inc.),
 the Gaussian 92(TM) system (copyright 1992, Gaussian, Inc.),
 the Gaussian 90(TM) system (copyright 1990, Gaussian, Inc.),
 the Gaussian 88(TM) system (copyright 1988, Gaussian, Inc.),
 the Gaussian 86(TM) system (copyright 1986, Carnegie Mellon
 University), and the Gaussian 82(TM) system (copyright 1983,
 Carnegie Mellon University). Gaussian is a federally registered
 trademark of Gaussian, Inc.
  
 This software contains proprietary and confidential information,
 including trade secrets, belonging to Gaussian, Inc.
  
 This software is provided under written license and may be
 used, copied, transmitted, or stored only in accord with that
 written license.
  
 The following legend is applicable only to US Government
 contracts under FAR:
  
                    RESTRICTED RIGHTS LEGEND
  
 Use, reproduction and disclosure by the US Government is
 subject to restrictions as set forth in subparagraphs (a)
 and (c) of the Commercial Computer Software - Restricted
 Rights clause in FAR 52.227-19.
  
 Gaussian, Inc.
 340 Quinnipiac St., Bldg. 40, Wallingford CT 06492
  
  
 ---------------------------------------------------------------
 Warning -- This program may not be used in any manner that
 competes with the business of Gaussian, Inc. or will provide
 assistance to any competitor of Gaussian, Inc.  The licensee
 of this program is prohibited from giving any competitor of
 Gaussian, Inc. access to this program.  By using this program,
 the user acknowledges that Gaussian, Inc. is engaged in the
 business of creating and licensing software in the field of
 computational chemistry and represents and warrants to the
 licensee that it is not a competitor of Gaussian, Inc. and that
 it will not use this program in any manner prohibited above.
 ---------------------------------------------------------------
  

 Cite this work as:
 Gaussian 16, Revision A.03,
 M. J. Frisch, G. W. Trucks, H. B. Schlegel, G. E. Scuseria, 
 M. A. Robb, J. R. Cheeseman, G. Scalmani, V. Barone, 
 G. A. Petersson, H. Nakatsuji, X. Li, M. Caricato, A. V. Marenich, 
 J. Bloino, B. G. Janesko, R. Gomperts, B. Mennucci, H. P. Hratchian, 
 J. V. Ortiz, A. F. Izmaylov, J. L. Sonnenberg, D. Williams-Young, 
 F. Ding, F. Lipparini, F. Egidi, J. Goings, B. Peng, A. Petrone, 
 T. Henderson, D. Ranasinghe, V. G. Zakrzewski, J. Gao, N. Rega, 
 G. Zheng, W. Liang, M. Hada, M. Ehara, K. Toyota, R. Fukuda, 
 J. Hasegawa, M. Ishida, T. Nakajima, Y. Honda, O. Kitao, H. Nakai, 
 T. Vreven, K. Throssell, J. A. Montgomery, Jr., J. E. Peralta, 
 F. Ogliaro, M. J. Bearpark, J. J. Heyd, E. N. Brothers, K. N. Kudin, 
 V. N. Staroverov, T. A. Keith, R. Kobayashi, J. Normand, 
 K. Raghavachari, A. P. Rendell, J. C. Burant, S. S. Iyengar, 
 J. Tomasi, M. Cossi, J. M. Millam, M. Klene, C. Adamo, R. Cammi, 
 J. W. Ochterski, R. L. Martin, K. Morokuma, O. Farkas, 
 J. B. Foresman, and D. J. Fox, Gaussian, Inc., Wallingford CT, 2016.
 
 ******************************************
 Gaussian 16:  ES64L-G16RevA.03 25-Dec-2016
                30-Mar-2023 
 ******************************************
 %nproc=4
 Will use up to    4 processors via shared memory.
 %Chk=2Mep.n.39_WATER.chk
 %mem=800MB
 ----------------------------------------------------------------------
 #p b3lyp/6-31G(d) opt=(MaxStep=10,MaxCycles=1000) freq scf=(MaxCycle=2
 000,NoVarAcc,NoIncFock) scrf=(iefpcm,read,solvent=water)
 ----------------------------------------------------------------------
 1/6=1000,8=10,18=20,19=15,26=3,38=1,40=2/1,3;
 2/9=110,12=2,17=6,18=5,40=1/2;
 3/5=1,6=6,7=1,11=2,25=1,30=1,70=2203,71=1,72=1,74=-5/1,2,3;
 4//1;
 5/5=100002,7=2000,38=1,53=1/2;
 6/7=2,8=2,9=2,10=2,28=1/1;
 7//1,2,3,16;
 1/6=1000,8=10,18=20,19=15,26=3/3(2);
 2/9=110/2;
 99//99;
 2/9=110/2;
 3/5=1,6=6,7=1,11=2,25=1,30=1,70=2205,71=1,72=1,74=-5/1,2,3;
 4/5=5,16=3,69=1/1;
 5/5=100002,7=2000,38=1,53=1/2;
 7//1,2,3,16;
 1/6=1000,8=10,18=20,19=15,26=3/3(-5);
 2/9=110/2;
 6/7=2,8=2,9=2,10=2,19=2,28=1/1;
 99/9=1/99;
 Leave Link    1 at Thu Mar 30 08:48:52 2023, MaxMem=   104857600 cpu:               0.1 elap:               0.0
 (Enter /dades/curu/g16A03_MST/g16/l101.exe)
 ---------------
 2Mep.n.39_WATER
 ---------------
 Symbolic Z-matrix:
 Charge =  0 Multiplicity = 1
 C                     1.984     0.78      0.232 
 O                     1.534     1.938     0.969 
 C                     0.273     1.893     1.427 
 O                    -0.485     0.964     1.206 
 C                    -0.13      3.18      2.16 
 C                    -1.446     2.962     2.917 
 C                    -0.236     4.357     1.149 
 C                     0.199     5.583     1.965 
 C                     1.338     5.043     2.833 
 N                     0.95      3.637     3.066 
 C                     1.573     2.778     3.906 
 C                     2.686     3.338     4.763 
 O                     1.241     1.578     3.968 
 H                     3.013     0.999    -0.051 
 H                     1.367     0.63     -0.657 
 H                     1.945    -0.108     0.868 
 H                    -2.228     2.629     2.23 
 H                    -1.328     2.208     3.7 
 H                    -1.766     3.901     3.379 
 H                     0.457     4.2       0.316 
 H                    -1.248     4.438     0.745 
 H                     0.524     6.413     1.333 
 H                    -0.623     5.935     2.597 
 H                     2.298     5.086     2.304 
 H                     1.442     5.579     3.779 
 H                     3.111     2.528     5.359 
 H                     3.473     3.784     4.145 
 H                     2.31      4.119     5.433 
 
 ITRead=  0  0  0  0  0  0  0  0  0  0  0  0  0  0  0  0  0  0  0  0
 ITRead=  0  0  0  0  0  0  0  0
 MicOpt= -1 -1 -1 -1 -1 -1 -1 -1 -1 -1 -1 -1 -1 -1 -1 -1 -1 -1 -1 -1
 MicOpt= -1 -1 -1 -1 -1 -1 -1 -1
 NAtoms=     28 NQM=       28 NQMF=       0 NMMI=      0 NMMIF=      0
                NMic=       0 NMicF=      0.
                    Isotopes and Nuclear Properties:
 (Nuclear quadrupole moments (NQMom) in fm**2, nuclear magnetic moments (NMagM)
  in nuclear magnetons)

  Atom         1           2           3           4           5           6           7           8           9          10
 IAtWgt=          12          16          12          16          12          12          12          12          12          14
 AtmWgt=  12.0000000  15.9949146  12.0000000  15.9949146  12.0000000  12.0000000  12.0000000  12.0000000  12.0000000  14.0030740
 NucSpn=           0           0           0           0           0           0           0           0           0           2
 AtZEff=  -0.0000000  -0.0000000  -0.0000000  -0.0000000  -0.0000000  -0.0000000  -0.0000000  -0.0000000  -0.0000000  -0.0000000
 NQMom=    0.0000000   0.0000000   0.0000000   0.0000000   0.0000000   0.0000000   0.0000000   0.0000000   0.0000000   2.0440000
 NMagM=    0.0000000   0.0000000   0.0000000   0.0000000   0.0000000   0.0000000   0.0000000   0.0000000   0.0000000   0.4037610
 AtZNuc=   6.0000000   8.0000000   6.0000000   8.0000000   6.0000000   6.0000000   6.0000000   6.0000000   6.0000000   7.0000000

  Atom        11          12          13          14          15          16          17          18          19          20
 IAtWgt=          12          12          16           1           1           1           1           1           1           1
 AtmWgt=  12.0000000  12.0000000  15.9949146   1.0078250   1.0078250   1.0078250   1.0078250   1.0078250   1.0078250   1.0078250
 NucSpn=           0           0           0           1           1           1           1           1           1           1
 AtZEff=  -0.0000000  -0.0000000  -0.0000000  -0.0000000  -0.0000000  -0.0000000  -0.0000000  -0.0000000  -0.0000000  -0.0000000
 NQMom=    0.0000000   0.0000000   0.0000000   0.0000000   0.0000000   0.0000000   0.0000000   0.0000000   0.0000000   0.0000000
 NMagM=    0.0000000   0.0000000   0.0000000   2.7928460   2.7928460   2.7928460   2.7928460   2.7928460   2.7928460   2.7928460
 AtZNuc=   6.0000000   6.0000000   8.0000000   1.0000000   1.0000000   1.0000000   1.0000000   1.0000000   1.0000000   1.0000000

  Atom        21          22          23          24          25          26          27          28
 IAtWgt=           1           1           1           1           1           1           1           1
 AtmWgt=   1.0078250   1.0078250   1.0078250   1.0078250   1.0078250   1.0078250   1.0078250   1.0078250
 NucSpn=           1           1           1           1           1           1           1           1
 AtZEff=  -0.0000000  -0.0000000  -0.0000000  -0.0000000  -0.0000000  -0.0000000  -0.0000000  -0.0000000
 NQMom=    0.0000000   0.0000000   0.0000000   0.0000000   0.0000000   0.0000000   0.0000000   0.0000000
 NMagM=    2.7928460   2.7928460   2.7928460   2.7928460   2.7928460   2.7928460   2.7928460   2.7928460
 AtZNuc=   1.0000000   1.0000000   1.0000000   1.0000000   1.0000000   1.0000000   1.0000000   1.0000000
 Leave Link  101 at Thu Mar 30 08:48:52 2023, MaxMem=   104857600 cpu:               0.2 elap:               0.2
 (Enter /dades/curu/g16A03_MST/g16/l103.exe)

 GradGradGradGradGradGradGradGradGradGradGradGradGradGradGradGradGradGrad
 Berny optimization.
 Initialization pass.
                           ----------------------------
                           !    Initial Parameters    !
                           ! (Angstroms and Degrees)  !
 --------------------------                            --------------------------
 ! Name  Definition              Value          Derivative Info.                !
 --------------------------------------------------------------------------------
 ! R1    R(1,2)                  1.4445         estimate D2E/DX2                !
 ! R2    R(1,14)                 1.0894         estimate D2E/DX2                !
 ! R3    R(1,15)                 1.0925         estimate D2E/DX2                !
 ! R4    R(1,16)                 1.093          estimate D2E/DX2                !
 ! R5    R(2,3)                  1.3424         estimate D2E/DX2                !
 ! R6    R(3,4)                  1.2192         estimate D2E/DX2                !
 ! R7    R(3,5)                  1.5349         estimate D2E/DX2                !
 ! R8    R(5,6)                  1.5338         estimate D2E/DX2                !
 ! R9    R(5,7)                  1.5552         estimate D2E/DX2                !
 ! R10   R(5,10)                 1.4819         estimate D2E/DX2                !
 ! R11   R(6,17)                 1.0929         estimate D2E/DX2                !
 ! R12   R(6,18)                 1.0934         estimate D2E/DX2                !
 ! R13   R(6,19)                 1.0943         estimate D2E/DX2                !
 ! R14   R(7,8)                  1.5356         estimate D2E/DX2                !
 ! R15   R(7,20)                 1.0949         estimate D2E/DX2                !
 ! R16   R(7,21)                 1.0927         estimate D2E/DX2                !
 ! R17   R(8,9)                  1.5305         estimate D2E/DX2                !
 ! R18   R(8,22)                 1.0927         estimate D2E/DX2                !
 ! R19   R(8,23)                 1.095          estimate D2E/DX2                !
 ! R20   R(9,10)                 1.477          estimate D2E/DX2                !
 ! R21   R(9,24)                 1.0969         estimate D2E/DX2                !
 ! R22   R(9,25)                 1.0923         estimate D2E/DX2                !
 ! R23   R(10,11)                1.3534         estimate D2E/DX2                !
 ! R24   R(11,12)                1.5122         estimate D2E/DX2                !
 ! R25   R(11,13)                1.2466         estimate D2E/DX2                !
 ! R26   R(12,26)                1.0918         estimate D2E/DX2                !
 ! R27   R(12,27)                1.0955         estimate D2E/DX2                !
 ! R28   R(12,28)                1.0956         estimate D2E/DX2                !
 ! A1    A(2,1,14)             105.404          estimate D2E/DX2                !
 ! A2    A(2,1,15)             110.4449         estimate D2E/DX2                !
 ! A3    A(2,1,16)             110.0788         estimate D2E/DX2                !
 ! A4    A(14,1,15)            110.4661         estimate D2E/DX2                !
 ! A5    A(14,1,16)            110.3764         estimate D2E/DX2                !
 ! A6    A(15,1,16)            109.9876         estimate D2E/DX2                !
 ! A7    A(1,2,3)              116.0941         estimate D2E/DX2                !
 ! A8    A(2,3,4)              123.212          estimate D2E/DX2                !
 ! A9    A(2,3,5)              112.4243         estimate D2E/DX2                !
 ! A10   A(4,3,5)              124.2094         estimate D2E/DX2                !
 ! A11   A(3,5,6)              109.9861         estimate D2E/DX2                !
 ! A12   A(3,5,7)              109.9998         estimate D2E/DX2                !
 ! A13   A(3,5,10)             111.0499         estimate D2E/DX2                !
 ! A14   A(6,5,7)              111.7116         estimate D2E/DX2                !
 ! A15   A(6,5,10)             111.5552         estimate D2E/DX2                !
 ! A16   A(7,5,10)             102.3404         estimate D2E/DX2                !
 ! A17   A(5,6,17)             110.3039         estimate D2E/DX2                !
 ! A18   A(5,6,18)             111.0302         estimate D2E/DX2                !
 ! A19   A(5,6,19)             109.7129         estimate D2E/DX2                !
 ! A20   A(17,6,18)            108.4975         estimate D2E/DX2                !
 ! A21   A(17,6,19)            108.5179         estimate D2E/DX2                !
 ! A22   A(18,6,19)            108.7198         estimate D2E/DX2                !
 ! A23   A(5,7,8)              103.8554         estimate D2E/DX2                !
 ! A24   A(5,7,20)             110.0547         estimate D2E/DX2                !
 ! A25   A(5,7,21)             111.0747         estimate D2E/DX2                !
 ! A26   A(8,7,20)             109.8442         estimate D2E/DX2                !
 ! A27   A(8,7,21)             113.556          estimate D2E/DX2                !
 ! A28   A(20,7,21)            108.3936         estimate D2E/DX2                !
 ! A29   A(7,8,9)              103.3261         estimate D2E/DX2                !
 ! A30   A(7,8,22)             112.5414         estimate D2E/DX2                !
 ! A31   A(7,8,23)             110.5298         estimate D2E/DX2                !
 ! A32   A(9,8,22)             112.0052         estimate D2E/DX2                !
 ! A33   A(9,8,23)             110.1669         estimate D2E/DX2                !
 ! A34   A(22,8,23)            108.2359         estimate D2E/DX2                !
 ! A35   A(8,9,10)             103.2871         estimate D2E/DX2                !
 ! A36   A(8,9,24)             111.3442         estimate D2E/DX2                !
 ! A37   A(8,9,25)             112.8872         estimate D2E/DX2                !
 ! A38   A(10,9,24)            110.0768         estimate D2E/DX2                !
 ! A39   A(10,9,25)            110.8247         estimate D2E/DX2                !
 ! A40   A(24,9,25)            108.3673         estimate D2E/DX2                !
 ! A41   A(5,10,9)             112.8643         estimate D2E/DX2                !
 ! A42   A(5,10,11)            121.2792         estimate D2E/DX2                !
 ! A43   A(9,10,11)            125.5327         estimate D2E/DX2                !
 ! A44   A(10,11,12)           117.0976         estimate D2E/DX2                !
 ! A45   A(10,11,13)           121.2818         estimate D2E/DX2                !
 ! A46   A(12,11,13)           121.6207         estimate D2E/DX2                !
 ! A47   A(11,12,26)           108.7319         estimate D2E/DX2                !
 ! A48   A(11,12,27)           111.0873         estimate D2E/DX2                !
 ! A49   A(11,12,28)           110.9758         estimate D2E/DX2                !
 ! A50   A(26,12,27)           109.2896         estimate D2E/DX2                !
 ! A51   A(26,12,28)           109.1867         estimate D2E/DX2                !
 ! A52   A(27,12,28)           107.5366         estimate D2E/DX2                !
 ! D1    D(14,1,2,3)          -179.9217         estimate D2E/DX2                !
 ! D2    D(15,1,2,3)            60.7525         estimate D2E/DX2                !
 ! D3    D(16,1,2,3)           -60.8934         estimate D2E/DX2                !
 ! D4    D(1,2,3,4)             -2.66           estimate D2E/DX2                !
 ! D5    D(1,2,3,5)           -178.3131         estimate D2E/DX2                !
 ! D6    D(2,3,5,6)           -167.7091         estimate D2E/DX2                !
 ! D7    D(2,3,5,7)             68.8361         estimate D2E/DX2                !
 ! D8    D(2,3,5,10)           -43.7315         estimate D2E/DX2                !
 ! D9    D(4,3,5,6)             16.6887         estimate D2E/DX2                !
 ! D10   D(4,3,5,7)           -106.7661         estimate D2E/DX2                !
 ! D11   D(4,3,5,10)           140.6663         estimate D2E/DX2                !
 ! D12   D(3,5,6,17)           -56.5048         estimate D2E/DX2                !
 ! D13   D(3,5,6,18)            63.8048         estimate D2E/DX2                !
 ! D14   D(3,5,6,19)          -175.9962         estimate D2E/DX2                !
 ! D15   D(7,5,6,17)            65.9438         estimate D2E/DX2                !
 ! D16   D(7,5,6,18)          -173.7466         estimate D2E/DX2                !
 ! D17   D(7,5,6,19)           -53.5476         estimate D2E/DX2                !
 ! D18   D(10,5,6,17)          179.8116         estimate D2E/DX2                !
 ! D19   D(10,5,6,18)          -59.8788         estimate D2E/DX2                !
 ! D20   D(10,5,6,19)           60.3202         estimate D2E/DX2                !
 ! D21   D(3,5,7,8)           -147.1989         estimate D2E/DX2                !
 ! D22   D(3,5,7,20)           -29.6669         estimate D2E/DX2                !
 ! D23   D(3,5,7,21)            90.3773         estimate D2E/DX2                !
 ! D24   D(6,5,7,8)             90.3604         estimate D2E/DX2                !
 ! D25   D(6,5,7,20)          -152.1076         estimate D2E/DX2                !
 ! D26   D(6,5,7,21)           -32.0635         estimate D2E/DX2                !
 ! D27   D(10,5,7,8)           -29.1063         estimate D2E/DX2                !
 ! D28   D(10,5,7,20)           88.4257         estimate D2E/DX2                !
 ! D29   D(10,5,7,21)         -151.5301         estimate D2E/DX2                !
 ! D30   D(3,5,10,9)           126.7294         estimate D2E/DX2                !
 ! D31   D(3,5,10,11)          -47.082          estimate D2E/DX2                !
 ! D32   D(6,5,10,9)          -110.1912         estimate D2E/DX2                !
 ! D33   D(6,5,10,11)           75.9974         estimate D2E/DX2                !
 ! D34   D(7,5,10,9)             9.385          estimate D2E/DX2                !
 ! D35   D(7,5,10,11)         -164.4264         estimate D2E/DX2                !
 ! D36   D(5,7,8,9)             38.2797         estimate D2E/DX2                !
 ! D37   D(5,7,8,22)           159.2922         estimate D2E/DX2                !
 ! D38   D(5,7,8,23)           -79.5617         estimate D2E/DX2                !
 ! D39   D(20,7,8,9)           -79.3985         estimate D2E/DX2                !
 ! D40   D(20,7,8,22)           41.614          estimate D2E/DX2                !
 ! D41   D(20,7,8,23)          162.7601         estimate D2E/DX2                !
 ! D42   D(21,7,8,9)           159.0477         estimate D2E/DX2                !
 ! D43   D(21,7,8,22)          -79.9399         estimate D2E/DX2                !
 ! D44   D(21,7,8,23)           41.2063         estimate D2E/DX2                !
 ! D45   D(7,8,9,10)           -31.9535         estimate D2E/DX2                !
 ! D46   D(7,8,9,24)            86.1443         estimate D2E/DX2                !
 ! D47   D(7,8,9,25)          -151.7022         estimate D2E/DX2                !
 ! D48   D(22,8,9,10)         -153.3287         estimate D2E/DX2                !
 ! D49   D(22,8,9,24)          -35.2309         estimate D2E/DX2                !
 ! D50   D(22,8,9,25)           86.9226         estimate D2E/DX2                !
 ! D51   D(23,8,9,10)           86.1414         estimate D2E/DX2                !
 ! D52   D(23,8,9,24)         -155.7609         estimate D2E/DX2                !
 ! D53   D(23,8,9,25)          -33.6074         estimate D2E/DX2                !
 ! D54   D(8,9,10,5)            14.1375         estimate D2E/DX2                !
 ! D55   D(8,9,10,11)         -172.3631         estimate D2E/DX2                !
 ! D56   D(24,9,10,5)         -104.8414         estimate D2E/DX2                !
 ! D57   D(24,9,10,11)          68.658          estimate D2E/DX2                !
 ! D58   D(25,9,10,5)          135.2934         estimate D2E/DX2                !
 ! D59   D(25,9,10,11)         -51.2072         estimate D2E/DX2                !
 ! D60   D(5,10,11,12)         178.4491         estimate D2E/DX2                !
 ! D61   D(5,10,11,13)          -1.5591         estimate D2E/DX2                !
 ! D62   D(9,10,11,12)           5.4601         estimate D2E/DX2                !
 ! D63   D(9,10,11,13)        -174.548          estimate D2E/DX2                !
 ! D64   D(10,11,12,26)       -178.1791         estimate D2E/DX2                !
 ! D65   D(10,11,12,27)        -57.8731         estimate D2E/DX2                !
 ! D66   D(10,11,12,28)         61.7108         estimate D2E/DX2                !
 ! D67   D(13,11,12,26)          1.8291         estimate D2E/DX2                !
 ! D68   D(13,11,12,27)        122.135          estimate D2E/DX2                !
 ! D69   D(13,11,12,28)       -118.281          estimate D2E/DX2                !
 --------------------------------------------------------------------------------
 Trust Radius=1.00D-01 FncErr=1.00D-07 GrdErr=1.00D-06 EigMax=2.50D+02 EigMin=1.00D-04
 Number of steps in this run=    168 maximum allowed number of steps=    168.
 GradGradGradGradGradGradGradGradGradGradGradGradGradGradGradGradGradGrad

 Leave Link  103 at Thu Mar 30 08:48:52 2023, MaxMem=   104857600 cpu:               0.1 elap:               0.0
 (Enter /dades/curu/g16A03_MST/g16/l202.exe)
                          Input orientation:                          
 ---------------------------------------------------------------------
 Center     Atomic      Atomic             Coordinates (Angstroms)
 Number     Number       Type             X           Y           Z
 ---------------------------------------------------------------------
      1          6           0        1.984000    0.780000    0.232000
      2          8           0        1.534000    1.938000    0.969000
      3          6           0        0.273000    1.893000    1.427000
      4          8           0       -0.485000    0.964000    1.206000
      5          6           0       -0.130000    3.180000    2.160000
      6          6           0       -1.446000    2.962000    2.917000
      7          6           0       -0.236000    4.357000    1.149000
      8          6           0        0.199000    5.583000    1.965000
      9          6           0        1.338000    5.043000    2.833000
     10          7           0        0.950000    3.637000    3.066000
     11          6           0        1.573000    2.778000    3.906000
     12          6           0        2.686000    3.338000    4.763000
     13          8           0        1.241000    1.578000    3.968000
     14          1           0        3.013000    0.999000   -0.051000
     15          1           0        1.367000    0.630000   -0.657000
     16          1           0        1.945000   -0.108000    0.868000
     17          1           0       -2.228000    2.629000    2.230000
     18          1           0       -1.328000    2.208000    3.700000
     19          1           0       -1.766000    3.901000    3.379000
     20          1           0        0.457000    4.200000    0.316000
     21          1           0       -1.248000    4.438000    0.745000
     22          1           0        0.524000    6.413000    1.333000
     23          1           0       -0.623000    5.935000    2.597000
     24          1           0        2.298000    5.086000    2.304000
     25          1           0        1.442000    5.579000    3.779000
     26          1           0        3.111000    2.528000    5.359000
     27          1           0        3.473000    3.784000    4.145000
     28          1           0        2.310000    4.119000    5.433000
 ---------------------------------------------------------------------
                    Distance matrix (angstroms):
                    1          2          3          4          5
     1  C    0.000000
     2  O    1.444518   0.000000
     3  C    2.365230   1.342352   0.000000
     4  O    2.660544   2.254153   1.219199   0.000000
     5  C    3.734458   2.393730   1.534949   2.438606   0.000000
     6  C    4.871884   3.704549   2.513528   2.800544   1.533763
     7  C    4.308621   3.002809   2.531336   3.402602   1.555213
     8  C    5.409096   4.007526   3.729748   4.730655   2.433244
     9  C    5.035443   3.626836   3.610202   4.754861   2.465506
    10  N    4.154896   2.761352   2.487204   3.558617   1.481919
    11  C    4.202285   3.055011   2.935756   3.849151   2.471908
    12  C    5.250346   4.204942   4.363426   5.323849   3.838024
    13  O    3.891857   3.034708   2.737322   3.314320   2.777573
    14  H    1.089445   2.027205   3.239031   3.717160   4.418567
    15  H    1.092479   2.093473   2.671153   2.648061   4.083993
    16  H    1.092960   2.089315   2.666846   2.677373   4.097052
    17  H    5.015152   4.027437   2.727912   2.618941   2.170278
    18  H    5.003554   3.965136   2.798027   2.911738   2.179814
    19  H    5.805751   4.533373   3.464086   3.871545   2.163862
    20  H    3.746356   2.589012   2.567183   3.485851   2.187534
    21  H    4.908152   3.746959   3.042300   3.586553   2.198798
    22  H    5.922372   4.601980   4.527940   5.543087   3.400578
    23  H    6.242091   4.824836   4.302265   5.163794   2.832674
    24  H    4.788885   3.503687   3.881366   5.093287   3.090106
    25  H    5.992109   4.600157   4.526043   5.624223   3.293561
    26  H    5.532790   4.701822   4.890613   5.711805   4.600303
    27  H    5.152932   4.153843   4.604716   5.679426   4.157722
    28  H    6.189152   5.028542   5.015225   5.969387   4.189015
                    6          7          8          9         10
     6  C    0.000000
     7  C    2.556550   0.000000
     8  C    3.237587   1.535629   0.000000
     9  C    3.476819   2.404980   1.530472   0.000000
    10  N    2.493721   2.366408   2.358626   1.477047   0.000000
    11  C    3.182191   3.656059   3.677415   2.517296   1.353370
    12  C    4.541202   4.757882   4.365089   2.906721   2.445998
    13  O    3.200004   4.225060   4.597586   3.647446   2.266664
    14  H    5.704829   4.824123   5.744206   5.241852   4.575008
    15  H    5.111230   4.440920   5.724624   5.626323   4.803818
    16  H    5.012203   4.977142   6.053049   5.546393   4.454913
    17  H    1.092878   2.850019   3.832319   4.348260   3.437244
    18  H    1.093402   3.509739   4.090548   3.987038   2.762839
    19  H    1.094333   2.742578   2.947837   3.352178   2.746693
    20  H    3.452427   1.094891   2.167592   2.796802   2.850003
    21  H    2.633508   1.092667   2.212066   3.378338   3.295428
    22  H    4.277775   2.199680   1.092680   2.188492   3.300143
    23  H    3.101364   2.176363   1.094994   2.167229   2.824021
    24  H    4.347951   2.878649   2.183513   1.096946   2.120695
    25  H    3.991526   3.350503   2.199014   1.092258   2.126452
    26  H    5.188253   5.680823   5.415903   3.981134   3.340307
    27  H    5.136169   4.802190   4.325260   2.804398   2.747977
    28  H    4.666523   4.989130   4.315859   2.925502   2.772113
                   11         12         13         14         15
    11  C    0.000000
    12  C    1.512223   0.000000
    13  O    1.246623   2.411981   0.000000
    14  H    4.571246   5.362131   4.430303   0.000000
    15  H    5.047505   6.200760   4.722839   1.792404   0.000000
    16  H    4.206759   5.253096   3.598362   1.791824   1.790071
    17  H    4.156775   5.573703   4.019851   5.943731   5.025415
    18  H    2.963636   4.303378   2.658662   5.863102   5.360649
    19  H    3.561991   4.696033   3.845166   6.559371   6.066665
    20  H    4.019408   5.048494   4.563622   4.112691   3.810476
    21  H    4.550336   5.729806   4.976188   5.533214   4.827493
    22  H    4.575364   5.088690   5.552886   6.117350   6.173641
    23  H    4.062333   4.731326   4.933314   6.678061   6.533884
    24  H    2.901533   3.041830   4.023954   4.770830   5.430490
    25  H    2.806936   2.745519   4.010502   6.173600   6.646527
    26  H    2.130529   1.091761   2.516800   5.622770   6.544937
    27  H    2.163136   1.095541   3.143181   5.057098   6.119000
    28  H    2.161754   1.095553   3.121805   6.348454   7.081700
                   16         17         18         19         20
    16  H    0.000000
    17  H    5.173021   0.000000
    18  H    4.908830   1.774300   0.000000
    19  H    6.012381   1.775283   1.777958   0.000000
    20  H    4.591047   3.652487   4.313438   3.796459   0.000000
    21  H    5.556662   2.537342   3.702881   2.737636   1.774179
    22  H    6.690210   4.764113   5.168619   3.967412   2.436421
    23  H    6.789839   3.693284   3.950211   2.460717   3.062611
    24  H    5.400402   5.150437   4.835243   4.367602   2.850688
    25  H    6.408502   4.956894   4.363804   3.642382   3.855416
    26  H    5.336397   6.189165   4.749674   5.439730   5.938952
    27  H    5.312361   6.123941   5.072613   5.295995   4.891886
    28  H    6.232173   5.750891   4.459849   4.569487   5.442780
                   21         22         23         24         25
    21  H    0.000000
    22  H    2.717785   0.000000
    23  H    2.462019   1.772509   0.000000
    24  H    3.927404   2.418852   3.055960   0.000000
    25  H    4.212260   2.742480   2.405844   1.775221   0.000000
    26  H    6.628573   6.163965   5.760126   4.066615   3.819759
    27  H    5.854533   4.849287   4.878557   2.542658   2.735131
    28  H    5.893935   5.026155   4.465786   3.275038   2.370810
                   26         27         28
    26  H    0.000000
    27  H    1.783922   0.000000
    28  H    1.782795   1.767410   0.000000
 Stoichiometry    C9H15NO3
 Framework group  C1[X(C9H15NO3)]
 Deg. of freedom    78
 Full point group                 C1      NOp   1
 Largest Abelian subgroup         C1      NOp   1
 Largest concise Abelian subgroup C1      NOp   1
                         Standard orientation:                         
 ---------------------------------------------------------------------
 Center     Atomic      Atomic             Coordinates (Angstroms)
 Number     Number       Type             X           Y           Z
 ---------------------------------------------------------------------
      1          6           0        2.882399    0.783129   -1.295018
      2          8           0        1.558701    0.296145   -0.983084
      3          6           0        1.416721   -0.306330    0.208040
      4          8           0        2.343656   -0.489194    0.978623
      5          6           0       -0.009481   -0.826521    0.434791
      6          6           0       -0.195519   -1.222538    1.904821
      7          6           0       -0.300036   -2.016909   -0.522935
      8          6           0       -1.799257   -1.885698   -0.828347
      9          6           0       -2.005555   -0.373281   -0.939613
     10          7           0       -1.015332    0.175119    0.009274
     11          6           0       -0.911569    1.474118    0.374575
     12          6           0       -1.970675    2.421729   -0.142286
     13          8           0        0.017938    1.868692    1.105599
     14          1           0        2.799571    1.233432   -2.283581
     15          1           0        3.598773   -0.041554   -1.309723
     16          1           0        3.189579    1.531771   -0.560351
     17          1           0        0.553522   -1.963273    2.195736
     18          1           0       -0.096912   -0.353373    2.560838
     19          1           0       -1.189083   -1.658732    2.046704
     20          1           0        0.278395   -1.906031   -1.445924
     21          1           0       -0.030505   -2.968962   -0.059393
     22          1           0       -2.087246   -2.406694   -1.744631
     23          1           0       -2.395925   -2.288395   -0.003220
     24          1           0       -1.793248   -0.014958   -1.954413
     25          1           0       -3.016771   -0.061436   -0.669019
     26          1           0       -1.738549    3.430294    0.205356
     27          1           0       -2.004877    2.415275   -1.237274
     28          1           0       -2.963916    2.135460    0.220699
 ---------------------------------------------------------------------
 Rotational constants (GHZ):           0.9772773           0.7702924           0.6131850
 Leave Link  202 at Thu Mar 30 08:48:53 2023, MaxMem=   104857600 cpu:               0.0 elap:               0.0
 (Enter /dades/curu/g16A03_MST/g16/l301.exe)
 Standard basis: 6-31G(d) (6D, 7F)
 Ernie: Thresh=  0.10000D-02 Tol=  0.10000D-05 Strict=F.
 There are   225 symmetry adapted cartesian basis functions of A   symmetry.
 There are   225 symmetry adapted basis functions of A   symmetry.
   225 basis functions,   424 primitive gaussians,   225 cartesian basis functions
    50 alpha electrons       50 beta electrons
       nuclear repulsion energy       897.1569602113 Hartrees.
 IExCor=  402 DFT=T Ex+Corr=B3LYP ExCW=0 ScaHFX=  0.200000
 ScaDFX=  0.800000  0.720000  1.000000  0.810000 ScalE2=  1.000000  1.000000
 IRadAn=      5 IRanWt=     -1 IRanGd=            0 ICorTp=0 IEmpDi=  4
 NAtoms=   28 NActive=   28 NUniq=   28 SFac= 1.00D+00 NAtFMM=   60 NAOKFM=F Big=F
 Integral buffers will be    131072 words long.
 Raffenetti 2 integral format.
 Two-electron integral symmetry is turned on.
 Using the following non-standard input for PCM:
 MSTModel=DFT cav
 --- end of non-standard input.
 MST model for solvation energy: B3LYP parametrization.
 MST cavity parameters:
 ISph   IAn     Re0     Alpha   Atom Type   QCorr
 ------------------------------------------------
   1      6     1.50     1.25      CH3        F
   2      8     1.40     1.25      O          F
   3      6     1.50     1.25      C          F
   4      8     1.40     1.25      O          F
   5      6     1.50     1.25      C          F
   6      6     1.50     1.25      CH3        F
   7      6     1.50     1.25      CH2        F
   8      6     1.50     1.25      CH2        F
   9      6     1.50     1.25      CH2        F
  10      7     1.40     1.25      N          F
  11      6     1.50     1.25      C          F
  12      6     1.50     1.25      CH3        F
  13      8     1.40     1.25      O          F
  14      1     1.20     1.25      CH3        F
  15      1     1.20     1.25      CH3        F
  16      1     1.20     1.25      CH3        F
  17      1     1.20     1.25      CH3        F
  18      1     1.20     1.25      CH3        F
  19      1     1.20     1.25      CH3        F
  20      1     1.20     1.25      CH2        F
  21      1     1.20     1.25      CH2        F
  22      1     1.20     1.25      CH2        F
  23      1     1.20     1.25      CH2        F
  24      1     1.20     1.25      CH2        F
  25      1     1.20     1.25      CH2        F
  26      1     1.20     1.25      CH3        F
  27      1     1.20     1.25      CH3        F
  28      1     1.20     1.25      CH3        F
 ------------------------------------------------------------------------------
 Polarizable Continuum Model (PCM)
 =================================
 Model                : PCM.
 Atomic radii         : MST.
 Polarization charges : Total charges.
 Charge compensation  : None.
 Solution method      : On-the-fly selection.
 Cavity type          : Scaled VdW (van der Waals Surface) (Alpha=1.250).
 Cavity algorithm     : GePol (No added spheres)
                        Default sphere list used, NSphG=   28.
                        Lebedev-Laikov grids with approx.  5.0 points / Ang**2.
                        Smoothing algorithm: York/Karplus (Gamma=1.0000).
                        Polarization charges: spherical gaussians, with
                                              point-specific exponents (IZeta= 3).
                        Self-potential: point-specific (ISelfS= 7).
                        Self-field    : sphere-specific E.n sum rule (ISelfD= 2).
 1st derivatives      : Analytical E(r).r(x)/FMM algorithm (CHGder, D1EAlg=3).
                        Cavity 1st derivative terms included.
 Solvent              : Water, Eps=  78.355300 Eps(inf)=   1.777849
 ------------------------------------------------------------------------------
 GePol: Number of generator spheres                  =      28
 GePol: Total number of spheres                      =      28
 GePol: Number of exposed spheres                    =      28 (100.00%)
 GePol: Number of points                             =    1851
 GePol: Average weight of points                     =       0.14
 GePol: Minimum weight of points                     =   0.22D-09
 GePol: Maximum weight of points                     =    0.22001
 GePol: Number of points with low weight             =     143
 GePol: Fraction of low-weight points (<1% of avg)   =       7.73%
 GePol: Cavity surface area                          =    257.286 Ang**2
 GePol: Cavity volume                                =    241.206 Ang**3
 Surface areas from nonelectrostatic (unscaled) cavity and vdw tensions:
 Sphere =    1 Type =  CH3 Surf =        5.443 Tension =       -0.140
 Sphere =    2 Type =  O   Surf =       10.242 Tension =       -0.117
 Sphere =    3 Type =  C   Surf =        5.835 Tension =       -0.101
 Sphere =    4 Type =  O   Surf =       15.855 Tension =       -0.117
 Sphere =    5 Type =  C   Surf =        1.965 Tension =       -0.101
 Sphere =    6 Type =  CH3 Surf =        4.887 Tension =       -0.140
 Sphere =    7 Type =  CH2 Surf =        3.904 Tension =       -0.139
 Sphere =    8 Type =  CH2 Surf =        4.152 Tension =       -0.139
 Sphere =    9 Type =  CH2 Surf =        4.376 Tension =       -0.139
 Sphere =   10 Type =  N   Surf =        4.208 Tension =       -0.105
 Sphere =   11 Type =  C   Surf =        7.026 Tension =       -0.101
 Sphere =   12 Type =  CH3 Surf =        5.214 Tension =       -0.140
 Sphere =   13 Type =  O   Surf =       15.749 Tension =       -0.117
 Sphere =   14 Type =  CH3 Surf =       10.117 Tension =       -0.140
 Sphere =   15 Type =  CH3 Surf =       10.163 Tension =       -0.140
 Sphere =   16 Type =  CH3 Surf =       10.169 Tension =       -0.140
 Sphere =   17 Type =  CH3 Surf =       10.068 Tension =       -0.140
 Sphere =   18 Type =  CH3 Surf =       10.110 Tension =       -0.140
 Sphere =   19 Type =  CH3 Surf =       10.088 Tension =       -0.140
 Sphere =   20 Type =  CH2 Surf =        9.794 Tension =       -0.139
 Sphere =   21 Type =  CH2 Surf =       10.051 Tension =       -0.139
 Sphere =   22 Type =  CH2 Surf =       10.117 Tension =       -0.139
 Sphere =   23 Type =  CH2 Surf =       10.052 Tension =       -0.139
 Sphere =   24 Type =  CH2 Surf =       10.160 Tension =       -0.139
 Sphere =   25 Type =  CH2 Surf =        9.908 Tension =       -0.139
 Sphere =   26 Type =  CH3 Surf =       10.068 Tension =       -0.140
 Sphere =   27 Type =  CH3 Surf =       10.144 Tension =       -0.140
 Sphere =   28 Type =  CH3 Surf =       10.014 Tension =       -0.140
 PCM non-electrostatic energy =         0.0036922098 Hartrees.
 Nuclear repulsion after PCM non-electrostatic terms =      897.1606524211 Hartrees.
 Leave Link  301 at Thu Mar 30 08:48:53 2023, MaxMem=   104857600 cpu:               0.1 elap:               0.1
 (Enter /dades/curu/g16A03_MST/g16/l302.exe)
 NPDir=0 NMtPBC=     1 NCelOv=     1 NCel=       1 NClECP=     1 NCelD=      1
         NCelK=      1 NCelE2=     1 NClLst=     1 CellRange=     0.0.
 One-electron integrals computed using PRISM.
 One-electron integral symmetry used in STVInt
 NBasis=   225 RedAO= T EigKep=  1.54D-03  NBF=   225
 NBsUse=   225 1.00D-06 EigRej= -1.00D+00 NBFU=   225
 Precomputing XC quadrature grid using
 IXCGrd= 4 IRadAn=           5 IRanWt=          -1 IRanGd=           0 AccXCQ= 0.00D+00.
 Generated NRdTot=       0 NPtTot=           0 NUsed=           0 NTot=          32
 NSgBfM=   225   225   225   225   225 MxSgAt=    28 MxSgA2=    28.
 Leave Link  302 at Thu Mar 30 08:48:53 2023, MaxMem=   104857600 cpu:               2.9 elap:               0.8
 (Enter /dades/curu/g16A03_MST/g16/l303.exe)
 DipDrv:  MaxL=1.
 Leave Link  303 at Thu Mar 30 08:48:54 2023, MaxMem=   104857600 cpu:               0.1 elap:               0.1
 (Enter /dades/curu/g16A03_MST/g16/l401.exe)
 ExpMin= 1.61D-01 ExpMax= 5.48D+03 ExpMxC= 8.25D+02 IAcc=3 IRadAn=         5 AccDes= 0.00D+00
 Harris functional with IExCor=  402 and IRadAn=       5 diagonalized for initial guess.
 HarFok:  IExCor=  402 AccDes= 0.00D+00 IRadAn=         5 IDoV= 1 UseB2=F ITyADJ=14
 ICtDFT=  3500011 ScaDFX=  1.000000  1.000000  1.000000  1.000000
 FoFCou: FMM=F IPFlag=           0 FMFlag=      100000 FMFlg1=           0
         NFxFlg=           0 DoJE=T BraDBF=F KetDBF=T FulRan=T
         wScrn=  0.000000 ICntrl=       500 IOpCl=  0 I1Cent=   200000004 NGrid=           0
         NMat0=    1 NMatS0=      1 NMatT0=    0 NMatD0=    1 NMtDS0=    0 NMtDT0=    0
 Petite list used in FoFCou.
 Harris En= -632.468513679278    
 JPrj=0 DoOrth=F DoCkMO=F.
 Leave Link  401 at Thu Mar 30 08:48:59 2023, MaxMem=   104857600 cpu:              23.2 elap:               5.9
 (Enter /dades/curu/g16A03_MST/g16/l502.exe)
 Integral symmetry usage will be decided dynamically.
 Closed shell SCF:
 Using DIIS extrapolation, IDIIS=  1040.
 NGot=   104857600 LenX=   104752303 LenY=   104701237
 Requested convergence on RMS density matrix=1.00D-08 within2000 cycles.
 Requested convergence on MAX density matrix=1.00D-06.
 Requested convergence on             energy=1.00D-06.
 No special actions if energy rises.

 Cycle   1  Pass 1  IDiag  1:
 FoFJK:  IHMeth= 1 ICntrl=       0 DoSepK=F KAlg= 0 I1Cent=           0 FoldK=F
 IRaf= 930000000 NMat=       1 IRICut=       1 DoRegI=T DoRafI=F ISym2E= 0 IDoP0=0 IntGTp=1.
 FoFCou: FMM=F IPFlag=           0 FMFlag=      100000 FMFlg1=           0
         NFxFlg=           0 DoJE=F BraDBF=F KetDBF=F FulRan=T
         wScrn=  0.000000 ICntrl=         0 IOpCl=  0 I1Cent=           0 NGrid=           0
         NMat0=    1 NMatS0=      1 NMatT0=    0 NMatD0=    1 NMtDS0=    0 NMtDT0=    0
 Symmetry not used in FoFCou.
 Inv3:  Mode=1 IEnd=    10278603.
 Iteration    1 A*A^-1 deviation from unit magnitude is 6.55D-15 for    917.
 Iteration    1 A*A^-1 deviation from orthogonality  is 4.29D-15 for   1843   1026.
 Iteration    1 A^-1*A deviation from unit magnitude is 7.77D-15 for    917.
 Iteration    1 A^-1*A deviation from orthogonality  is 5.37D-13 for   1786   1780.
 E= -632.087491144070    
 DIIS: error= 2.44D-02 at cycle   1 NSaved=   1.
 NSaved= 1 IEnMin= 1 EnMin= -632.087491144070     IErMin= 1 ErrMin= 2.44D-02
 ErrMax= 2.44D-02  0.00D+00 EMaxC= 1.00D-01 BMatC= 4.15D-01 BMatP= 4.15D-01
 IDIUse=3 WtCom= 7.56D-01 WtEn= 2.44D-01
 Coeff-Com:  0.100D+01
 Coeff-En:   0.100D+01
 Coeff:      0.100D+01
 Gap=     0.227 Goal=   None    Shift=    0.000
 GapD=    0.227 DampG=1.000 DampE=0.500 DampFc=0.5000 IDamp=-1.
 Damping current iteration by 5.00D-01
 RMSDP=6.04D-03 MaxDP=1.84D-01              OVMax= 2.48D-01

 Cycle   2  Pass 1  IDiag  1:
 E= -632.208865100818     Delta-E=       -0.121373956748 Rises=F Damp=T
 DIIS: error= 8.92D-03 at cycle   2 NSaved=   2.
 NSaved= 2 IEnMin= 2 EnMin= -632.208865100818     IErMin= 2 ErrMin= 8.92D-03
 ErrMax= 8.92D-03  0.00D+00 EMaxC= 1.00D-01 BMatC= 5.37D-02 BMatP= 4.15D-01
 IDIUse=3 WtCom= 9.11D-01 WtEn= 8.92D-02
 Coeff-Com:  0.192D+00 0.808D+00
 Coeff-En:   0.288D+00 0.712D+00
 Coeff:      0.200D+00 0.800D+00
 Gap=     0.260 Goal=   None    Shift=    0.000
 RMSDP=1.76D-03 MaxDP=6.96D-02 DE=-1.21D-01 OVMax= 1.80D-01

 Cycle   3  Pass 1  IDiag  1:
 E= -632.414735902997     Delta-E=       -0.205870802179 Rises=F Damp=F
 DIIS: error= 8.87D-03 at cycle   3 NSaved=   3.
 NSaved= 3 IEnMin= 3 EnMin= -632.414735902997     IErMin= 3 ErrMin= 8.87D-03
 ErrMax= 8.87D-03  0.00D+00 EMaxC= 1.00D-01 BMatC= 4.61D-02 BMatP= 5.37D-02
 IDIUse=3 WtCom= 9.11D-01 WtEn= 8.87D-02
 Coeff-Com:  0.552D-01 0.477D+00 0.468D+00
 Coeff-En:   0.000D+00 0.000D+00 0.100D+01
 Coeff:      0.503D-01 0.435D+00 0.515D+00
 Gap=     0.253 Goal=   None    Shift=    0.000
 RMSDP=1.17D-03 MaxDP=3.59D-02 DE=-2.06D-01 OVMax= 6.75D-02

 Cycle   4  Pass 1  IDiag  1:
 E= -632.448188905229     Delta-E=       -0.033453002232 Rises=F Damp=F
 DIIS: error= 3.32D-03 at cycle   4 NSaved=   4.
 NSaved= 4 IEnMin= 4 EnMin= -632.448188905229     IErMin= 4 ErrMin= 3.32D-03
 ErrMax= 3.32D-03  0.00D+00 EMaxC= 1.00D-01 BMatC= 6.98D-03 BMatP= 4.61D-02
 IDIUse=3 WtCom= 9.67D-01 WtEn= 3.32D-02
 Coeff-Com:  0.678D-02 0.939D-01 0.294D+00 0.605D+00
 Coeff-En:   0.000D+00 0.000D+00 0.140D+00 0.860D+00
 Coeff:      0.656D-02 0.908D-01 0.289D+00 0.614D+00
 Gap=     0.245 Goal=   None    Shift=    0.000
 RMSDP=3.88D-04 MaxDP=1.44D-02 DE=-3.35D-02 OVMax= 2.64D-02

 Cycle   5  Pass 1  IDiag  1:
 E= -632.453489373897     Delta-E=       -0.005300468668 Rises=F Damp=F
 DIIS: error= 8.43D-04 at cycle   5 NSaved=   5.
 NSaved= 5 IEnMin= 5 EnMin= -632.453489373897     IErMin= 5 ErrMin= 8.43D-04
 ErrMax= 8.43D-04  0.00D+00 EMaxC= 1.00D-01 BMatC= 5.02D-04 BMatP= 6.98D-03
 IDIUse=3 WtCom= 9.92D-01 WtEn= 8.43D-03
 Coeff-Com:  0.265D-03 0.153D-01 0.120D+00 0.337D+00 0.528D+00
 Coeff-En:   0.000D+00 0.000D+00 0.000D+00 0.000D+00 0.100D+01
 Coeff:      0.262D-03 0.152D-01 0.119D+00 0.334D+00 0.531D+00
 Gap=     0.247 Goal=   None    Shift=    0.000
 RMSDP=9.58D-05 MaxDP=3.23D-03 DE=-5.30D-03 OVMax= 6.98D-03

 Cycle   6  Pass 1  IDiag  1:
 E= -632.453887239316     Delta-E=       -0.000397865419 Rises=F Damp=F
 DIIS: error= 1.99D-04 at cycle   6 NSaved=   6.
 NSaved= 6 IEnMin= 6 EnMin= -632.453887239316     IErMin= 6 ErrMin= 1.99D-04
 ErrMax= 1.99D-04  0.00D+00 EMaxC= 1.00D-01 BMatC= 3.22D-05 BMatP= 5.02D-04
 IDIUse=3 WtCom= 9.98D-01 WtEn= 1.99D-03
 Coeff-Com: -0.435D-03 0.161D-03 0.379D-01 0.122D+00 0.278D+00 0.563D+00
 Coeff-En:   0.000D+00 0.000D+00 0.000D+00 0.000D+00 0.000D+00 0.100D+01
 Coeff:     -0.434D-03 0.161D-03 0.378D-01 0.121D+00 0.277D+00 0.564D+00
 Gap=     0.247 Goal=   None    Shift=    0.000
 RMSDP=2.32D-05 MaxDP=9.01D-04 DE=-3.98D-04 OVMax= 1.27D-03

 Cycle   7  Pass 1  IDiag  1:
 E= -632.453910283180     Delta-E=       -0.000023043864 Rises=F Damp=F
 DIIS: error= 7.06D-05 at cycle   7 NSaved=   7.
 NSaved= 7 IEnMin= 7 EnMin= -632.453910283180     IErMin= 7 ErrMin= 7.06D-05
 ErrMax= 7.06D-05  0.00D+00 EMaxC= 1.00D-01 BMatC= 2.47D-06 BMatP= 3.22D-05
 IDIUse=1 WtCom= 1.00D+00 WtEn= 0.00D+00
 Coeff-Com: -0.205D-03-0.840D-03 0.122D-01 0.415D-01 0.117D+00 0.304D+00
 Coeff-Com:  0.526D+00
 Coeff:     -0.205D-03-0.840D-03 0.122D-01 0.415D-01 0.117D+00 0.304D+00
 Coeff:      0.526D+00
 Gap=     0.247 Goal=   None    Shift=    0.000
 RMSDP=7.35D-06 MaxDP=3.28D-04 DE=-2.30D-05 OVMax= 3.93D-04

 Cycle   8  Pass 1  IDiag  1:
 E= -632.453912051424     Delta-E=       -0.000001768244 Rises=F Damp=F
 DIIS: error= 2.78D-05 at cycle   8 NSaved=   8.
 NSaved= 8 IEnMin= 8 EnMin= -632.453912051424     IErMin= 8 ErrMin= 2.78D-05
 ErrMax= 2.78D-05  0.00D+00 EMaxC= 1.00D-01 BMatC= 3.21D-07 BMatP= 2.47D-06
 IDIUse=1 WtCom= 1.00D+00 WtEn= 0.00D+00
 Coeff-Com: -0.611D-04-0.505D-03 0.363D-02 0.124D-01 0.437D-01 0.125D+00
 Coeff-Com:  0.310D+00 0.506D+00
 Coeff:     -0.611D-04-0.505D-03 0.363D-02 0.124D-01 0.437D-01 0.125D+00
 Coeff:      0.310D+00 0.506D+00
 Gap=     0.247 Goal=   None    Shift=    0.000
 RMSDP=2.70D-06 MaxDP=9.67D-05 DE=-1.77D-06 OVMax= 1.53D-04

 Cycle   9  Pass 1  IDiag  1:
 E= -632.453912274170     Delta-E=       -0.000000222745 Rises=F Damp=F
 DIIS: error= 7.79D-06 at cycle   9 NSaved=   9.
 NSaved= 9 IEnMin= 9 EnMin= -632.453912274170     IErMin= 9 ErrMin= 7.79D-06
 ErrMax= 7.79D-06  0.00D+00 EMaxC= 1.00D-01 BMatC= 3.62D-08 BMatP= 3.21D-07
 IDIUse=1 WtCom= 1.00D+00 WtEn= 0.00D+00
 Coeff-Com:  0.381D-05-0.147D-03-0.656D-05-0.350D-03 0.451D-02 0.143D-01
 Coeff-Com:  0.749D-01 0.282D+00 0.625D+00
 Coeff:      0.381D-05-0.147D-03-0.656D-05-0.350D-03 0.451D-02 0.143D-01
 Coeff:      0.749D-01 0.282D+00 0.625D+00
 Gap=     0.247 Goal=   None    Shift=    0.000
 RMSDP=7.71D-07 MaxDP=2.87D-05 DE=-2.23D-07 OVMax= 4.05D-05

 Cycle  10  Pass 1  IDiag  1:
 E= -632.453912301384     Delta-E=       -0.000000027214 Rises=F Damp=F
 DIIS: error= 1.34D-06 at cycle  10 NSaved=  10.
 NSaved=10 IEnMin=10 EnMin= -632.453912301384     IErMin=10 ErrMin= 1.34D-06
 ErrMax= 1.34D-06  0.00D+00 EMaxC= 1.00D-01 BMatC= 1.12D-09 BMatP= 3.62D-08
 IDIUse=1 WtCom= 1.00D+00 WtEn= 0.00D+00
 Coeff-Com:  0.582D-05-0.370D-04-0.172D-03-0.771D-03-0.510D-04-0.289D-03
 Coeff-Com:  0.161D-01 0.937D-01 0.250D+00 0.642D+00
 Coeff:      0.582D-05-0.370D-04-0.172D-03-0.771D-03-0.510D-04-0.289D-03
 Coeff:      0.161D-01 0.937D-01 0.250D+00 0.642D+00
 Gap=     0.247 Goal=   None    Shift=    0.000
 RMSDP=2.15D-07 MaxDP=5.27D-06 DE=-2.72D-08 OVMax= 7.67D-06

 Cycle  11  Pass 1  IDiag  1:
 E= -632.453912302382     Delta-E=       -0.000000000998 Rises=F Damp=F
 DIIS: error= 4.27D-07 at cycle  11 NSaved=  11.
 NSaved=11 IEnMin=11 EnMin= -632.453912302382     IErMin=11 ErrMin= 4.27D-07
 ErrMax= 4.27D-07  0.00D+00 EMaxC= 1.00D-01 BMatC= 1.59D-10 BMatP= 1.12D-09
 IDIUse=1 WtCom= 1.00D+00 WtEn= 0.00D+00
 Coeff-Com:  0.199D-05-0.163D-05-0.816D-04-0.339D-03-0.485D-03-0.185D-02
 Coeff-Com: -0.377D-03 0.142D-01 0.481D-01 0.308D+00 0.633D+00
 Coeff:      0.199D-05-0.163D-05-0.816D-04-0.339D-03-0.485D-03-0.185D-02
 Coeff:     -0.377D-03 0.142D-01 0.481D-01 0.308D+00 0.633D+00
 Gap=     0.247 Goal=   None    Shift=    0.000
 RMSDP=6.33D-08 MaxDP=1.54D-06 DE=-9.98D-10 OVMax= 3.47D-06

 Cycle  12  Pass 1  IDiag  1:
 E= -632.453912302543     Delta-E=       -0.000000000162 Rises=F Damp=F
 DIIS: error= 1.44D-07 at cycle  12 NSaved=  12.
 NSaved=12 IEnMin=12 EnMin= -632.453912302543     IErMin=12 ErrMin= 1.44D-07
 ErrMax= 1.44D-07  0.00D+00 EMaxC= 1.00D-01 BMatC= 1.20D-11 BMatP= 1.59D-10
 IDIUse=1 WtCom= 1.00D+00 WtEn= 0.00D+00
 Coeff-Com:  0.508D-06 0.144D-05-0.291D-04-0.116D-03-0.238D-03-0.938D-03
 Coeff-Com: -0.142D-02-0.245D-03 0.464D-02 0.104D+00 0.304D+00 0.590D+00
 Coeff:      0.508D-06 0.144D-05-0.291D-04-0.116D-03-0.238D-03-0.938D-03
 Coeff:     -0.142D-02-0.245D-03 0.464D-02 0.104D+00 0.304D+00 0.590D+00
 Gap=     0.247 Goal=   None    Shift=    0.000
 RMSDP=1.86D-08 MaxDP=6.66D-07 DE=-1.62D-10 OVMax= 6.46D-07

 Cycle  13  Pass 1  IDiag  1:
 E= -632.453912302553     Delta-E=       -0.000000000009 Rises=F Damp=F
 DIIS: error= 4.50D-08 at cycle  13 NSaved=  13.
 NSaved=13 IEnMin=13 EnMin= -632.453912302553     IErMin=13 ErrMin= 4.50D-08
 ErrMax= 4.50D-08  0.00D+00 EMaxC= 1.00D-01 BMatC= 1.83D-12 BMatP= 1.20D-11
 IDIUse=1 WtCom= 1.00D+00 WtEn= 0.00D+00
 Coeff-Com: -0.334D-07 0.103D-05-0.972D-06-0.501D-05-0.314D-04-0.170D-03
 Coeff-Com: -0.546D-03-0.207D-02-0.457D-02 0.674D-02 0.630D-01 0.316D+00
 Coeff-Com:  0.622D+00
 Coeff:     -0.334D-07 0.103D-05-0.972D-06-0.501D-05-0.314D-04-0.170D-03
 Coeff:     -0.546D-03-0.207D-02-0.457D-02 0.674D-02 0.630D-01 0.316D+00
 Coeff:      0.622D+00
 Gap=     0.247 Goal=   None    Shift=    0.000
 RMSDP=5.89D-09 MaxDP=2.43D-07 DE=-9.32D-12 OVMax= 3.39D-07

 Error on total polarization charges =  0.01458
 SCF Done:  E(RB3LYP) =  -632.453912303     A.U. after   13 cycles
            NFock= 13  Conv=0.59D-08     -V/T= 2.0094
 KE= 6.265817032016D+02 PE=-3.269068853956D+03 EE= 1.112872586031D+03
 Leave Link  502 at Thu Mar 30 08:51:24 2023, MaxMem=   104857600 cpu:             564.7 elap:             144.1
 (Enter /dades/curu/g16A03_MST/g16/l601.exe)
 Copying SCF densities to generalized density rwf, IOpCl= 0 IROHF=0.

 **********************************************************************

            Population analysis using the SCF density.

 **********************************************************************

 Orbital symmetries:
       Occupied  (A) (A) (A) (A) (A) (A) (A) (A) (A) (A) (A) (A)
                 (A) (A) (A) (A) (A) (A) (A) (A) (A) (A) (A) (A)
                 (A) (A) (A) (A) (A) (A) (A) (A) (A) (A) (A) (A)
                 (A) (A) (A) (A) (A) (A) (A) (A) (A) (A) (A) (A)
                 (A) (A)
       Virtual   (A) (A) (A) (A) (A) (A) (A) (A) (A) (A) (A) (A)
                 (A) (A) (A) (A) (A) (A) (A) (A) (A) (A) (A) (A)
                 (A) (A) (A) (A) (A) (A) (A) (A) (A) (A) (A) (A)
                 (A) (A) (A) (A) (A) (A) (A) (A) (A) (A) (A) (A)
                 (A) (A) (A) (A) (A) (A) (A) (A) (A) (A) (A) (A)
                 (A) (A) (A) (A) (A) (A) (A) (A) (A) (A) (A) (A)
                 (A) (A) (A) (A) (A) (A) (A) (A) (A) (A) (A) (A)
                 (A) (A) (A) (A) (A) (A) (A) (A) (A) (A) (A) (A)
                 (A) (A) (A) (A) (A) (A) (A) (A) (A) (A) (A) (A)
                 (A) (A) (A) (A) (A) (A) (A) (A) (A) (A) (A) (A)
                 (A) (A) (A) (A) (A) (A) (A) (A) (A) (A) (A) (A)
                 (A) (A) (A) (A) (A) (A) (A) (A) (A) (A) (A) (A)
                 (A) (A) (A) (A) (A) (A) (A) (A) (A) (A) (A) (A)
                 (A) (A) (A) (A) (A) (A) (A) (A) (A) (A) (A) (A)
                 (A) (A) (A) (A) (A) (A) (A)
 The electronic state is 1-A.
 Alpha  occ. eigenvalues --  -19.19591 -19.14088 -19.11524 -14.36509 -10.31980
 Alpha  occ. eigenvalues --  -10.28900 -10.24648 -10.23718 -10.22292 -10.19348
 Alpha  occ. eigenvalues --  -10.19073 -10.18609 -10.17642  -1.10563  -1.02990
 Alpha  occ. eigenvalues --   -1.01558  -0.94452  -0.80847  -0.77773  -0.73075
 Alpha  occ. eigenvalues --   -0.72756  -0.68181  -0.63591  -0.59970  -0.58571
 Alpha  occ. eigenvalues --   -0.54454  -0.50219  -0.49055  -0.47866  -0.47702
 Alpha  occ. eigenvalues --   -0.47278  -0.45089  -0.43510  -0.42423  -0.41920
 Alpha  occ. eigenvalues --   -0.41441  -0.40601  -0.39100  -0.38936  -0.38438
 Alpha  occ. eigenvalues --   -0.37427  -0.35859  -0.35219  -0.34950  -0.34348
 Alpha  occ. eigenvalues --   -0.33407  -0.30465  -0.28105  -0.25446  -0.24269
 Alpha virt. eigenvalues --    0.00383   0.02349   0.08239   0.10333   0.11376
 Alpha virt. eigenvalues --    0.12070   0.12245   0.13381   0.14449   0.15476
 Alpha virt. eigenvalues --    0.15963   0.16189   0.16729   0.17375   0.17853
 Alpha virt. eigenvalues --    0.18580   0.19471   0.20658   0.21294   0.21563
 Alpha virt. eigenvalues --    0.23444   0.23658   0.25778   0.26687   0.27774
 Alpha virt. eigenvalues --    0.29448   0.33310   0.35438   0.37042   0.39705
 Alpha virt. eigenvalues --    0.48062   0.49937   0.50585   0.51652   0.52674
 Alpha virt. eigenvalues --    0.54135   0.54615   0.55737   0.56228   0.58237
 Alpha virt. eigenvalues --    0.59359   0.61436   0.62249   0.62532   0.62842
 Alpha virt. eigenvalues --    0.65069   0.67059   0.68516   0.70151   0.71875
 Alpha virt. eigenvalues --    0.74086   0.74624   0.76743   0.77652   0.80693
 Alpha virt. eigenvalues --    0.82075   0.82931   0.83172   0.84634   0.85184
 Alpha virt. eigenvalues --    0.85734   0.86743   0.87962   0.88423   0.89851
 Alpha virt. eigenvalues --    0.90584   0.91179   0.91811   0.92274   0.93260
 Alpha virt. eigenvalues --    0.93738   0.94434   0.95875   0.98725   0.99877
 Alpha virt. eigenvalues --    1.00552   1.02039   1.03144   1.06281   1.09838
 Alpha virt. eigenvalues --    1.11560   1.13143   1.15631   1.19076   1.21292
 Alpha virt. eigenvalues --    1.25227   1.29311   1.30977   1.34397   1.36044
 Alpha virt. eigenvalues --    1.37032   1.41968   1.42701   1.46189   1.51545
 Alpha virt. eigenvalues --    1.53546   1.54313   1.57212   1.60135   1.63397
 Alpha virt. eigenvalues --    1.65735   1.71454   1.72399   1.74849   1.76855
 Alpha virt. eigenvalues --    1.79076   1.80190   1.81138   1.82751   1.83810
 Alpha virt. eigenvalues --    1.85409   1.88252   1.89361   1.90120   1.93118
 Alpha virt. eigenvalues --    1.94343   1.95589   1.98557   2.00399   2.01214
 Alpha virt. eigenvalues --    2.01533   2.02932   2.04036   2.05115   2.07581
 Alpha virt. eigenvalues --    2.08497   2.11056   2.12444   2.15133   2.18264
 Alpha virt. eigenvalues --    2.20232   2.21948   2.23330   2.27346   2.28318
 Alpha virt. eigenvalues --    2.28802   2.29236   2.31360   2.33788   2.36689
 Alpha virt. eigenvalues --    2.40270   2.43574   2.46707   2.49795   2.52510
 Alpha virt. eigenvalues --    2.54853   2.56601   2.59544   2.62683   2.63628
 Alpha virt. eigenvalues --    2.68425   2.70619   2.72562   2.75903   2.83842
 Alpha virt. eigenvalues --    2.86746   2.94220   2.96433   3.00192   3.03620
 Alpha virt. eigenvalues --    3.15891   3.21503   3.96798   4.00152   4.11382
 Alpha virt. eigenvalues --    4.19326   4.22221   4.25299   4.31195   4.32793
 Alpha virt. eigenvalues --    4.39670   4.49082   4.56413   4.57769   4.81262
          Condensed to atoms (all electrons):
               1          2          3          4          5          6
     1  C    4.902704   0.207425  -0.022016   0.003862   0.007102  -0.000178
     2  O    0.207425   8.260143   0.254497  -0.081170  -0.092843   0.003328
     3  C   -0.022016   0.254497   4.346002   0.530567   0.349861  -0.051352
     4  O    0.003862  -0.081170   0.530567   8.144026  -0.070746   0.002944
     5  C    0.007102  -0.092843   0.349861  -0.070746   4.943283   0.371500
     6  C   -0.000178   0.003328  -0.051352   0.002944   0.371500   5.161704
     7  C   -0.000157  -0.004433  -0.032303   0.000663   0.352929  -0.050194
     8  C    0.000018  -0.000449   0.003006  -0.000039  -0.040654  -0.004846
     9  C    0.000008   0.000619   0.002201  -0.000062  -0.059148   0.004154
    10  N   -0.000216   0.000553  -0.046169   0.002310   0.243550  -0.064527
    11  C   -0.000214   0.006722  -0.003745  -0.000846  -0.034978  -0.003042
    12  C    0.000010  -0.000194  -0.000310  -0.000017   0.007472  -0.000243
    13  O   -0.000089  -0.004118   0.021338  -0.002892   0.004520  -0.006445
    14  H    0.380524  -0.031058   0.004469   0.000739  -0.000014   0.000001
    15  H    0.373093  -0.030974  -0.005050   0.006080  -0.000027  -0.000007
    16  H    0.372988  -0.031357  -0.003921   0.004771   0.000005   0.000014
    17  H   -0.000011   0.000078  -0.002994   0.005522  -0.024764   0.359569
    18  H   -0.000011   0.000024  -0.005100   0.001182  -0.023491   0.364499
    19  H    0.000002  -0.000036   0.005011   0.000461  -0.029187   0.364625
    20  H   -0.000310   0.008628  -0.006063  -0.000222  -0.036724   0.005282
    21  H   -0.000003   0.000159   0.000423   0.000043  -0.032653  -0.004183
    22  H   -0.000000  -0.000006  -0.000060   0.000000   0.004028  -0.000045
    23  H    0.000000  -0.000008   0.000131  -0.000000  -0.000293   0.000540
    24  H   -0.000006   0.000493   0.000401  -0.000000   0.001646  -0.000200
    25  H   -0.000000   0.000008  -0.000091   0.000001   0.003502   0.000023
    26  H   -0.000000   0.000004   0.000004   0.000000  -0.000133   0.000005
    27  H   -0.000003   0.000071   0.000004   0.000000  -0.000165  -0.000005
    28  H    0.000000  -0.000001   0.000009   0.000000  -0.000201   0.000037
               7          8          9         10         11         12
     1  C   -0.000157   0.000018   0.000008  -0.000216  -0.000214   0.000010
     2  O   -0.004433  -0.000449   0.000619   0.000553   0.006722  -0.000194
     3  C   -0.032303   0.003006   0.002201  -0.046169  -0.003745  -0.000310
     4  O    0.000663  -0.000039  -0.000062   0.002310  -0.000846  -0.000017
     5  C    0.352929  -0.040654  -0.059148   0.243550  -0.034978   0.007472
     6  C   -0.050194  -0.004846   0.004154  -0.064527  -0.003042  -0.000243
     7  C    5.122603   0.352902  -0.065012  -0.048333   0.006268  -0.000317
     8  C    0.352902   5.042769   0.369305  -0.054289   0.003199   0.000070
     9  C   -0.065012   0.369305   4.925816   0.266332  -0.025805  -0.003195
    10  N   -0.048333  -0.054289   0.266332   7.132385   0.301700  -0.117326
    11  C    0.006268   0.003199  -0.025805   0.301700   4.309500   0.361954
    12  C   -0.000317   0.000070  -0.003195  -0.117326   0.361954   5.309943
    13  O    0.000554  -0.000129   0.002915  -0.099075   0.552202  -0.078446
    14  H   -0.000002   0.000000   0.000002   0.000003  -0.000021  -0.000002
    15  H    0.000014  -0.000000   0.000000  -0.000022   0.000029   0.000000
    16  H   -0.000009  -0.000000   0.000001  -0.000058  -0.000055   0.000003
    17  H   -0.003258   0.000256  -0.000177   0.004565   0.000127   0.000006
    18  H    0.004862  -0.000236  -0.000131  -0.008129   0.004286   0.000165
    19  H   -0.005583   0.001244   0.000694  -0.001570  -0.000093  -0.000008
    20  H    0.368052  -0.036054   0.002036  -0.001484  -0.000202   0.000006
    21  H    0.372797  -0.026106   0.004710   0.003746  -0.000063   0.000004
    22  H   -0.026585   0.373765  -0.028709   0.003615  -0.000027   0.000007
    23  H   -0.038345   0.378677  -0.033067  -0.000844  -0.000168  -0.000009
    24  H   -0.002911  -0.034216   0.377894  -0.046782  -0.002684   0.000092
    25  H    0.005144  -0.025716   0.377308  -0.037235  -0.005010   0.002633
    26  H    0.000004  -0.000006   0.000176   0.005121  -0.021530   0.353478
    27  H   -0.000000   0.000101   0.001264  -0.000222  -0.020101   0.354027
    28  H   -0.000002   0.000041  -0.001040   0.001098  -0.019885   0.354514
              13         14         15         16         17         18
     1  C   -0.000089   0.380524   0.373093   0.372988  -0.000011  -0.000011
     2  O   -0.004118  -0.031058  -0.030974  -0.031357   0.000078   0.000024
     3  C    0.021338   0.004469  -0.005050  -0.003921  -0.002994  -0.005100
     4  O   -0.002892   0.000739   0.006080   0.004771   0.005522   0.001182
     5  C    0.004520  -0.000014  -0.000027   0.000005  -0.024764  -0.023491
     6  C   -0.006445   0.000001  -0.000007   0.000014   0.359569   0.364499
     7  C    0.000554  -0.000002   0.000014  -0.000009  -0.003258   0.004862
     8  C   -0.000129   0.000000  -0.000000  -0.000000   0.000256  -0.000236
     9  C    0.002915   0.000002   0.000000   0.000001  -0.000177  -0.000131
    10  N   -0.099075   0.000003  -0.000022  -0.000058   0.004565  -0.008129
    11  C    0.552202  -0.000021   0.000029  -0.000055   0.000127   0.004286
    12  C   -0.078446  -0.000002   0.000000   0.000003   0.000006   0.000165
    13  O    8.192068  -0.000016   0.000006   0.000707   0.000095   0.010402
    14  H   -0.000016   0.522438  -0.029537  -0.029499  -0.000000  -0.000000
    15  H    0.000006  -0.029537   0.545192  -0.035594   0.000002  -0.000000
    16  H    0.000707  -0.029499  -0.035594   0.544934  -0.000001  -0.000001
    17  H    0.000095  -0.000000   0.000002  -0.000001   0.549286  -0.025874
    18  H    0.010402  -0.000000  -0.000000  -0.000001  -0.025874   0.540934
    19  H    0.000022  -0.000000  -0.000000   0.000000  -0.026233  -0.027539
    20  H    0.000014  -0.000010  -0.000024   0.000030   0.000019  -0.000165
    21  H   -0.000002  -0.000000  -0.000001   0.000001   0.002232   0.000177
    22  H    0.000001  -0.000000   0.000000  -0.000000  -0.000001   0.000004
    23  H    0.000001   0.000000   0.000000  -0.000000   0.000116  -0.000112
    24  H    0.000041  -0.000003   0.000002   0.000001   0.000009  -0.000010
    25  H    0.000002  -0.000000  -0.000000  -0.000000  -0.000003   0.000012
    26  H    0.005178   0.000000   0.000000  -0.000000  -0.000000   0.000002
    27  H    0.001486   0.000001   0.000000  -0.000001   0.000000  -0.000001
    28  H    0.001357   0.000000  -0.000000   0.000000  -0.000001  -0.000033
              19         20         21         22         23         24
     1  C    0.000002  -0.000310  -0.000003  -0.000000   0.000000  -0.000006
     2  O   -0.000036   0.008628   0.000159  -0.000006  -0.000008   0.000493
     3  C    0.005011  -0.006063   0.000423  -0.000060   0.000131   0.000401
     4  O    0.000461  -0.000222   0.000043   0.000000  -0.000000  -0.000000
     5  C   -0.029187  -0.036724  -0.032653   0.004028  -0.000293   0.001646
     6  C    0.364625   0.005282  -0.004183  -0.000045   0.000540  -0.000200
     7  C   -0.005583   0.368052   0.372797  -0.026585  -0.038345  -0.002911
     8  C    0.001244  -0.036054  -0.026106   0.373765   0.378677  -0.034216
     9  C    0.000694   0.002036   0.004710  -0.028709  -0.033067   0.377894
    10  N   -0.001570  -0.001484   0.003746   0.003615  -0.000844  -0.046782
    11  C   -0.000093  -0.000202  -0.000063  -0.000027  -0.000168  -0.002684
    12  C   -0.000008   0.000006   0.000004   0.000007  -0.000009   0.000092
    13  O    0.000022   0.000014  -0.000002   0.000001   0.000001   0.000041
    14  H   -0.000000  -0.000010  -0.000000  -0.000000   0.000000  -0.000003
    15  H   -0.000000  -0.000024  -0.000001   0.000000   0.000000   0.000002
    16  H    0.000000   0.000030   0.000001  -0.000000  -0.000000   0.000001
    17  H   -0.026233   0.000019   0.002232  -0.000001   0.000116   0.000009
    18  H   -0.027539  -0.000165   0.000177   0.000004  -0.000112  -0.000010
    19  H    0.557857   0.000063   0.000316  -0.000040   0.003087   0.000018
    20  H    0.000063   0.557592  -0.029499  -0.005946   0.004613   0.001936
    21  H    0.000316  -0.029499   0.541427   0.000539  -0.005469  -0.000114
    22  H   -0.000040  -0.005946   0.000539   0.546192  -0.030786  -0.004237
    23  H    0.003087   0.004613  -0.005469  -0.030786   0.557381   0.004701
    24  H    0.000018   0.001936  -0.000114  -0.004237   0.004701   0.572804
    25  H   -0.000119  -0.000052  -0.000116   0.001399  -0.006977  -0.042368
    26  H   -0.000000  -0.000000  -0.000000  -0.000000   0.000000   0.000000
    27  H    0.000000  -0.000003   0.000000  -0.000003   0.000003   0.002656
    28  H   -0.000000  -0.000000  -0.000000  -0.000001  -0.000004  -0.000326
              25         26         27         28
     1  C   -0.000000  -0.000000  -0.000003   0.000000
     2  O    0.000008   0.000004   0.000071  -0.000001
     3  C   -0.000091   0.000004   0.000004   0.000009
     4  O    0.000001   0.000000   0.000000   0.000000
     5  C    0.003502  -0.000133  -0.000165  -0.000201
     6  C    0.000023   0.000005  -0.000005   0.000037
     7  C    0.005144   0.000004  -0.000000  -0.000002
     8  C   -0.025716  -0.000006   0.000101   0.000041
     9  C    0.377308   0.000176   0.001264  -0.001040
    10  N   -0.037235   0.005121  -0.000222   0.001098
    11  C   -0.005010  -0.021530  -0.020101  -0.019885
    12  C    0.002633   0.353478   0.354027   0.354514
    13  O    0.000002   0.005178   0.001486   0.001357
    14  H   -0.000000   0.000000   0.000001   0.000000
    15  H   -0.000000   0.000000   0.000000  -0.000000
    16  H   -0.000000  -0.000000  -0.000001   0.000000
    17  H   -0.000003  -0.000000   0.000000  -0.000001
    18  H    0.000012   0.000002  -0.000001  -0.000033
    19  H   -0.000119  -0.000000   0.000000  -0.000000
    20  H   -0.000052  -0.000000  -0.000003  -0.000000
    21  H   -0.000116  -0.000000   0.000000  -0.000000
    22  H    0.001399  -0.000000  -0.000003  -0.000001
    23  H   -0.006977   0.000000   0.000003  -0.000004
    24  H   -0.042368   0.000000   0.002656  -0.000326
    25  H    0.549253   0.000075  -0.001460   0.003041
    26  H    0.000075   0.523143  -0.021456  -0.020744
    27  H   -0.001460  -0.021456   0.521182  -0.025845
    28  H    0.003041  -0.020744  -0.025845   0.517299
 Mulliken charges:
               1
     1  C   -0.224523
     2  O   -0.466106
     3  C    0.661251
     4  O   -0.547177
     5  C    0.156627
     6  C   -0.452959
     7  C   -0.309347
     8  C   -0.302615
     9  C   -0.119089
    10  N   -0.438695
    11  C    0.592481
    12  C   -0.544317
    13  O   -0.601699
    14  H    0.181984
    15  H    0.176820
    16  H    0.177042
    17  H    0.161432
    18  H    0.164284
    19  H    0.157010
    20  H    0.168486
    21  H    0.171636
    22  H    0.166895
    23  H    0.166832
    24  H    0.171162
    25  H    0.176746
    26  H    0.176681
    27  H    0.188471
    28  H    0.190686
 Sum of Mulliken charges =  -0.00000
 Mulliken charges with hydrogens summed into heavy atoms:
               1
     1  C    0.311323
     2  O   -0.466106
     3  C    0.661251
     4  O   -0.547177
     5  C    0.156627
     6  C    0.029767
     7  C    0.030775
     8  C    0.031112
     9  C    0.228819
    10  N   -0.438695
    11  C    0.592481
    12  C    0.011521
    13  O   -0.601699
 Electronic spatial extent (au):  <R**2>=           2235.9979
 Charge=              0.0000 electrons
 Dipole moment (field-independent basis, Debye):
    X=             -4.5393    Y=             -2.3898    Z=             -5.1515  Tot=              7.2701
 Quadrupole moment (field-independent basis, Debye-Ang):
   XX=            -70.2077   YY=            -75.4615   ZZ=            -78.3962
   XY=              1.2527   XZ=             -6.7679   YZ=             -4.3593
 Traceless Quadrupole moment (field-independent basis, Debye-Ang):
   XX=              4.4807   YY=             -0.7730   ZZ=             -3.7077
   XY=              1.2527   XZ=             -6.7679   YZ=             -4.3593
 Octapole moment (field-independent basis, Debye-Ang**2):
  XXX=             -1.4561  YYY=             -5.8548  ZZZ=            -12.1449  XYY=             -4.4030
  XXY=             17.6037  XXZ=            -26.6870  XZZ=              0.5029  YZZ=             -2.2827
  YYZ=            -11.6190  XYZ=             -2.5413
 Hexadecapole moment (field-independent basis, Debye-Ang**3):
 XXXX=          -1262.5768 YYYY=           -986.8078 ZZZZ=           -539.4742 XXXY=             26.9418
 XXXZ=            -67.1800 YYYX=            -12.0582 YYYZ=            -15.9179 ZZZX=            -11.6448
 ZZZY=             -6.3100 XXYY=           -362.4945 XXZZ=           -302.2217 YYZZ=           -261.5733
 XXYZ=              0.6416 YYXZ=             -4.3318 ZZXY=             10.6438
 N-N= 8.971606524211D+02 E-N=-3.269068853364D+03  KE= 6.265817032016D+02
 No NMR shielding tensors so no spin-rotation constants.
 Leave Link  601 at Thu Mar 30 08:51:24 2023, MaxMem=   104857600 cpu:               0.6 elap:               0.3
 (Enter /dades/curu/g16A03_MST/g16/l701.exe)
 ... and contract with generalized density number  0.
 Compute integral first derivatives.
 D1PCM: PCM CHGder 1st derivatives, ID1Alg=3 FixD1E=F DoIter=F DoCFld=F I1PDM=0.
 GePol: Maximum number of non-zero 1st derivatives   =     155
 Leave Link  701 at Thu Mar 30 08:51:26 2023, MaxMem=   104857600 cpu:               9.6 elap:               2.5
 (Enter /dades/curu/g16A03_MST/g16/l702.exe)
 L702 exits ... SP integral derivatives will be done elsewhere.
 Leave Link  702 at Thu Mar 30 08:51:27 2023, MaxMem=   104857600 cpu:               0.1 elap:               0.0
 (Enter /dades/curu/g16A03_MST/g16/l703.exe)
 Integral derivatives from FoFJK, PRISM(SPDF).
 Compute integral first derivatives, UseDBF=F ICtDFT=           0.
 Calling FoFJK, ICntrl=      2127 FMM=F ISym2X=0 I1Cent= 0 IOpClX= 0 NMat=1 NMatS=1 NMatT=0.
 FoFJK:  IHMeth= 1 ICntrl=    2127 DoSepK=F KAlg= 0 I1Cent=           0 FoldK=F
 IRaf=         0 NMat=       1 IRICut=       1 DoRegI=T DoRafI=F ISym2E= 0 IDoP0=0 IntGTp=1.
 FoFCou: FMM=F IPFlag=           0 FMFlag=      100000 FMFlg1=         800
         NFxFlg=           0 DoJE=F BraDBF=F KetDBF=F FulRan=T
         wScrn=  0.000000 ICntrl=      2127 IOpCl=  0 I1Cent=           0 NGrid=           0
         NMat0=    1 NMatS0=      1 NMatT0=    0 NMatD0=    1 NMtDS0=    0 NMtDT0=    0
 Symmetry not used in FoFCou.
 Leave Link  703 at Thu Mar 30 08:51:49 2023, MaxMem=   104857600 cpu:              89.0 elap:              22.4
 (Enter /dades/curu/g16A03_MST/g16/l716.exe)
 Dipole        =-1.78589613D+00-9.40231241D-01-2.02674183D+00
 ***** Axes restored to original set *****
 -------------------------------------------------------------------
 Center     Atomic                   Forces (Hartrees/Bohr)
 Number     Number              X              Y              Z
 -------------------------------------------------------------------
      1        6          -0.000643543    0.001325541    0.001264108
      2        8          -0.000011908    0.000396882   -0.000600456
      3        6          -0.002093657   -0.004639140   -0.001053311
      4        8           0.002453324    0.003668885    0.000791396
      5        6           0.001780412   -0.000301908    0.000479997
      6        6          -0.000747389    0.000169395    0.001263984
      7        6           0.000582603   -0.000602991    0.000790399
      8        6          -0.000609021    0.000513600   -0.000494714
      9        6          -0.000116666   -0.002722822    0.001002252
     10        7          -0.000616454    0.002142176   -0.002966096
     11        6          -0.002866093   -0.008987620    0.000946769
     12        6           0.000415672    0.001098918   -0.000019564
     13        8           0.001252239    0.007892831   -0.001005539
     14        1          -0.000882585    0.000007640    0.000273769
     15        1           0.000323875   -0.000128794    0.001170480
     16        1          -0.000369281    0.000829830   -0.000984904
     17        1           0.001054241   -0.000052138    0.000194640
     18        1           0.000934199    0.001234451   -0.001431120
     19        1           0.000629359   -0.000746632   -0.000414679
     20        1          -0.000816441   -0.000558620    0.001216165
     21        1           0.001007931   -0.000029937    0.000218478
     22        1          -0.000493692   -0.000329294    0.000518008
     23        1           0.000661629   -0.000116085   -0.000631491
     24        1          -0.000423464    0.000166113    0.000276494
     25        1           0.000277060   -0.000740139   -0.000160598
     26        1          -0.000646859    0.001060520   -0.000860629
     27        1          -0.000509748   -0.000300531    0.000901957
     28        1           0.000474257   -0.000250129   -0.000685795
 -------------------------------------------------------------------
 Cartesian Forces:  Max     0.008987620 RMS     0.001754685
 Leave Link  716 at Thu Mar 30 08:51:49 2023, MaxMem=   104857600 cpu:               0.1 elap:               0.1
 (Enter /dades/curu/g16A03_MST/g16/l103.exe)

 GradGradGradGradGradGradGradGradGradGradGradGradGradGradGradGradGradGrad
 Berny optimization.
 FormGI is forming the generalized inverse of G from B-inverse, IUseBI=4.
 Internal  Forces:  Max     0.007979102 RMS     0.001140701
 Search for a local minimum.
 Step number   1 out of a maximum of  168
 All quantities printed in internal units (Hartrees-Bohrs-Radians)
 RMS Force = .11407D-02 SwitMx=.10000D-02 MixMth= 1
 Mixed Optimization -- RFO/linear search
 Second derivative matrix not updated -- first step.
 ITU=  0
     Eigenvalues ---    0.00304   0.00319   0.00453   0.00563   0.00604
     Eigenvalues ---    0.00852   0.01006   0.01103   0.01283   0.02309
     Eigenvalues ---    0.02454   0.02671   0.03062   0.04627   0.04794
     Eigenvalues ---    0.05127   0.05546   0.05551   0.05676   0.05793
     Eigenvalues ---    0.06055   0.06506   0.06819   0.06869   0.07194
     Eigenvalues ---    0.07382   0.07715   0.08238   0.09260   0.10152
     Eigenvalues ---    0.10531   0.10652   0.12842   0.16000   0.16000
     Eigenvalues ---    0.16000   0.16000   0.16000   0.16000   0.16000
     Eigenvalues ---    0.16000   0.16000   0.17842   0.21154   0.24709
     Eigenvalues ---    0.24955   0.25000   0.25000   0.25000   0.25000
     Eigenvalues ---    0.25606   0.27691   0.28199   0.28971   0.29079
     Eigenvalues ---    0.31128   0.33052   0.33843   0.34022   0.34179
     Eigenvalues ---    0.34180   0.34242   0.34253   0.34317   0.34422
     Eigenvalues ---    0.34473   0.34482   0.34505   0.34506   0.34528
     Eigenvalues ---    0.34553   0.34610   0.34877   0.38972   0.54311
     Eigenvalues ---    0.56681   0.84497   0.95739
 RFO step:  Lambda=-7.60559222D-04 EMin= 3.03645430D-03
 Linear search not attempted -- first point.
 Iteration  1 RMS(Cart)=  0.05832468 RMS(Int)=  0.00107742
 Iteration  2 RMS(Cart)=  0.00172060 RMS(Int)=  0.00006964
 Iteration  3 RMS(Cart)=  0.00000128 RMS(Int)=  0.00006963
 Iteration  4 RMS(Cart)=  0.00000000 RMS(Int)=  0.00006963
 ITry= 1 IFail=0 DXMaxC= 2.60D-01 DCOld= 1.00D+10 DXMaxT= 1.00D-01 DXLimC= 3.00D+00 Rises=F
 Variable       Old X    -DE/DX   Delta X   Delta X   Delta X     New X
                                 (Linear)    (Quad)   (Total)
    R1        2.72974  -0.00300   0.00000  -0.00769  -0.00769   2.72205
    R2        2.05875  -0.00090   0.00000  -0.00257  -0.00257   2.05618
    R3        2.06449  -0.00112   0.00000  -0.00323  -0.00323   2.06125
    R4        2.06539  -0.00124   0.00000  -0.00359  -0.00359   2.06181
    R5        2.53668  -0.00177   0.00000  -0.00311  -0.00311   2.53357
    R6        2.30395  -0.00447   0.00000  -0.00466  -0.00466   2.29929
    R7        2.90063  -0.00196   0.00000  -0.00675  -0.00675   2.89389
    R8        2.89839  -0.00188   0.00000  -0.00647  -0.00647   2.89193
    R9        2.93893  -0.00204   0.00000  -0.00721  -0.00722   2.93171
   R10        2.80042  -0.00377   0.00000  -0.01132  -0.01129   2.78913
   R11        2.06524  -0.00086   0.00000  -0.00248  -0.00248   2.06276
   R12        2.06623  -0.00178   0.00000  -0.00515  -0.00515   2.06108
   R13        2.06799  -0.00100   0.00000  -0.00292  -0.00292   2.06507
   R14        2.90192  -0.00053   0.00000  -0.00138  -0.00141   2.90051
   R15        2.06904  -0.00136   0.00000  -0.00397  -0.00397   2.06508
   R16        2.06484  -0.00102   0.00000  -0.00294  -0.00294   2.06190
   R17        2.89217   0.00010   0.00000   0.00052   0.00051   2.89268
   R18        2.06487  -0.00070   0.00000  -0.00202  -0.00202   2.06285
   R19        2.06924  -0.00090   0.00000  -0.00261  -0.00261   2.06663
   R20        2.79122  -0.00325   0.00000  -0.00968  -0.00965   2.78156
   R21        2.07293  -0.00050   0.00000  -0.00147  -0.00147   2.07146
   R22        2.06407  -0.00047   0.00000  -0.00137  -0.00137   2.06270
   R23        2.55750  -0.00163   0.00000  -0.00300  -0.00300   2.55450
   R24        2.85769   0.00002   0.00000   0.00005   0.00005   2.85774
   R25        2.35578  -0.00798   0.00000  -0.00943  -0.00943   2.34634
   R26        2.06313  -0.00151   0.00000  -0.00434  -0.00434   2.05878
   R27        2.07027  -0.00100   0.00000  -0.00292  -0.00292   2.06735
[...]
                 (A) (A) (A) (A) (A) (A) (A) (A) (A) (A) (A) (A)
                 (A) (A) (A) (A) (A) (A) (A) (A) (A) (A) (A) (A)
                 (A) (A) (A) (A) (A) (A) (A) (A) (A) (A) (A) (A)
                 (A) (A) (A) (A) (A) (A) (A) (A) (A) (A) (A) (A)
                 (A) (A) (A) (A) (A) (A) (A) (A) (A) (A) (A) (A)
                 (A) (A) (A) (A) (A) (A) (A) (A) (A) (A) (A) (A)
                 (A) (A) (A) (A) (A) (A) (A) (A) (A) (A) (A) (A)
                 (A) (A) (A) (A) (A) (A) (A) (A) (A) (A) (A) (A)
                 (A) (A) (A) (A) (A) (A) (A) (A) (A) (A) (A) (A)
                 (A) (A) (A) (A) (A) (A) (A) (A) (A) (A) (A) (A)
                 (A) (A) (A) (A) (A) (A) (A) (A) (A) (A) (A) (A)
                 (A) (A) (A) (A) (A) (A) (A) (A) (A) (A) (A) (A)
                 (A) (A) (A) (A) (A) (A) (A) (A) (A) (A) (A) (A)
                 (A) (A) (A) (A) (A) (A) (A)
 The electronic state is 1-A.
 Alpha  occ. eigenvalues --  -19.19501 -19.14061 -19.11446 -14.36342 -10.31833
 Alpha  occ. eigenvalues --  -10.28761 -10.24432 -10.23588 -10.22290 -10.19313
 Alpha  occ. eigenvalues --  -10.19115 -10.18553 -10.17448  -1.10639  -1.03217
 Alpha  occ. eigenvalues --   -1.01671  -0.94664  -0.80915  -0.77874  -0.73114
 Alpha  occ. eigenvalues --   -0.72754  -0.68217  -0.63636  -0.60055  -0.58630
 Alpha  occ. eigenvalues --   -0.54472  -0.50288  -0.49113  -0.47949  -0.47744
 Alpha  occ. eigenvalues --   -0.47293  -0.45147  -0.43520  -0.42380  -0.41939
 Alpha  occ. eigenvalues --   -0.41480  -0.40618  -0.39173  -0.38950  -0.38484
 Alpha  occ. eigenvalues --   -0.37422  -0.35873  -0.35293  -0.34924  -0.34436
 Alpha  occ. eigenvalues --   -0.33417  -0.30416  -0.28097  -0.25371  -0.24128
 Alpha virt. eigenvalues --    0.00564   0.02480   0.08180   0.10391   0.11422
 Alpha virt. eigenvalues --    0.12145   0.12471   0.13489   0.14573   0.15614
 Alpha virt. eigenvalues --    0.16114   0.16339   0.16816   0.17430   0.17816
 Alpha virt. eigenvalues --    0.18712   0.19551   0.20825   0.21306   0.21753
 Alpha virt. eigenvalues --    0.23524   0.23927   0.25876   0.26872   0.27961
 Alpha virt. eigenvalues --    0.29579   0.33520   0.35626   0.37340   0.39689
 Alpha virt. eigenvalues --    0.47987   0.49715   0.50615   0.51871   0.52626
 Alpha virt. eigenvalues --    0.54050   0.54542   0.55923   0.56345   0.58417
 Alpha virt. eigenvalues --    0.59197   0.61343   0.62334   0.62636   0.63105
 Alpha virt. eigenvalues --    0.65498   0.67380   0.68669   0.70377   0.72019
 Alpha virt. eigenvalues --    0.74264   0.74806   0.77068   0.77706   0.80591
 Alpha virt. eigenvalues --    0.82329   0.83082   0.83256   0.84624   0.85246
 Alpha virt. eigenvalues --    0.85769   0.86847   0.88109   0.88450   0.89847
 Alpha virt. eigenvalues --    0.90514   0.91320   0.92030   0.92563   0.93496
 Alpha virt. eigenvalues --    0.93947   0.94530   0.96071   0.98844   1.00188
 Alpha virt. eigenvalues --    1.00676   1.02285   1.03294   1.06403   1.09806
 Alpha virt. eigenvalues --    1.12124   1.13259   1.15625   1.19138   1.22031
 Alpha virt. eigenvalues --    1.25152   1.29204   1.31255   1.34405   1.36117
 Alpha virt. eigenvalues --    1.37305   1.42146   1.43313   1.46421   1.51364
 Alpha virt. eigenvalues --    1.53574   1.54334   1.57598   1.60466   1.63357
 Alpha virt. eigenvalues --    1.65939   1.71609   1.72344   1.74850   1.77343
 Alpha virt. eigenvalues --    1.79316   1.80435   1.81812   1.83086   1.83866
 Alpha virt. eigenvalues --    1.85737   1.88671   1.89461   1.90329   1.92817
 Alpha virt. eigenvalues --    1.94271   1.96309   1.98872   2.00566   2.01738
 Alpha virt. eigenvalues --    2.01862   2.03277   2.04405   2.05162   2.07792
 Alpha virt. eigenvalues --    2.08800   2.11411   2.12651   2.15478   2.18689
 Alpha virt. eigenvalues --    2.20356   2.22697   2.23626   2.27609   2.28709
 Alpha virt. eigenvalues --    2.29045   2.29619   2.31599   2.34392   2.36969
 Alpha virt. eigenvalues --    2.40585   2.43328   2.46816   2.49938   2.52945
 Alpha virt. eigenvalues --    2.54982   2.57245   2.59992   2.63020   2.63785
 Alpha virt. eigenvalues --    2.69009   2.71223   2.73110   2.75998   2.84262
 Alpha virt. eigenvalues --    2.86675   2.95045   2.96967   3.01059   3.04255
 Alpha virt. eigenvalues --    3.16350   3.22278   3.97053   4.00806   4.11504
 Alpha virt. eigenvalues --    4.19381   4.22608   4.25724   4.31782   4.33325
 Alpha virt. eigenvalues --    4.40109   4.49795   4.57026   4.58387   4.82108
          Condensed to atoms (all electrons):
               1          2          3          4          5          6
     1  C    4.901193   0.208775  -0.022317   0.003518   0.007384  -0.000181
     2  O    0.208775   8.255190   0.256503  -0.080973  -0.094969   0.003363
     3  C   -0.022317   0.256503   4.341915   0.533692   0.350256  -0.051896
     4  O    0.003518  -0.080973   0.533692   8.137228  -0.070390   0.002096
     5  C    0.007384  -0.094969   0.350256  -0.070390   4.946958   0.374050
     6  C   -0.000181   0.003363  -0.051896   0.002096   0.374050   5.165966
     7  C   -0.000152  -0.004997  -0.032181   0.000713   0.352476  -0.050460
     8  C    0.000019  -0.000478   0.003048  -0.000039  -0.040849  -0.005006
     9  C    0.000008   0.000674   0.002275  -0.000064  -0.059519   0.004220
    10  N   -0.000215   0.000429  -0.048423   0.002318   0.244592  -0.064824
    11  C   -0.000218   0.006531  -0.003408  -0.000834  -0.035548  -0.003883
    12  C    0.000009  -0.000165  -0.000310  -0.000016   0.007806  -0.000298
    13  O   -0.000106  -0.003606   0.020639  -0.002652   0.004742  -0.008538
    14  H    0.380925  -0.031358   0.004550   0.000752  -0.000013   0.000001
    15  H    0.373121  -0.031477  -0.005360   0.006585  -0.000026  -0.000009
    16  H    0.373579  -0.031512  -0.004151   0.004712   0.000000   0.000016
    17  H   -0.000013   0.000103  -0.003253   0.006351  -0.025174   0.359225
    18  H   -0.000010   0.000022  -0.005422   0.001063  -0.023274   0.364274
    19  H    0.000002  -0.000039   0.005109   0.000433  -0.029880   0.364603
    20  H   -0.000335   0.009121  -0.006265  -0.000236  -0.037202   0.005453
    21  H   -0.000004   0.000178   0.000393   0.000053  -0.032893  -0.004133
    22  H   -0.000001  -0.000006  -0.000058   0.000000   0.004029  -0.000047
    23  H    0.000000  -0.000008   0.000137  -0.000000  -0.000220   0.000606
    24  H   -0.000007   0.000535   0.000442   0.000000   0.001681  -0.000206
    25  H   -0.000000   0.000009  -0.000101   0.000001   0.003604   0.000028
    26  H   -0.000000   0.000003   0.000002   0.000000  -0.000138   0.000007
    27  H   -0.000002   0.000073   0.000004   0.000000  -0.000168  -0.000006
    28  H    0.000000  -0.000001   0.000009   0.000000  -0.000215   0.000050
               7          8          9         10         11         12
     1  C   -0.000152   0.000019   0.000008  -0.000215  -0.000218   0.000009
     2  O   -0.004997  -0.000478   0.000674   0.000429   0.006531  -0.000165
     3  C   -0.032181   0.003048   0.002275  -0.048423  -0.003408  -0.000310
     4  O    0.000713  -0.000039  -0.000064   0.002318  -0.000834  -0.000016
     5  C    0.352476  -0.040849  -0.059519   0.244592  -0.035548   0.007806
     6  C   -0.050460  -0.005006   0.004220  -0.064824  -0.003883  -0.000298
     7  C    5.129287   0.353632  -0.065740  -0.049006   0.006454  -0.000330
     8  C    0.353632   5.043975   0.368869  -0.054748   0.003249   0.000041
     9  C   -0.065740   0.368869   4.929169   0.268334  -0.026479  -0.003531
    10  N   -0.049006  -0.054748   0.268334   7.135889   0.302016  -0.119910
    11  C    0.006454   0.003249  -0.026479   0.302016   4.308670   0.361120
    12  C   -0.000330   0.000041  -0.003531  -0.119910   0.361120   5.313802
    13  O    0.000581  -0.000137   0.003020  -0.100734   0.557062  -0.077219
    14  H   -0.000002   0.000000   0.000002   0.000000  -0.000018  -0.000001
    15  H    0.000016  -0.000000   0.000000  -0.000023   0.000028   0.000000
    16  H   -0.000011  -0.000000   0.000001  -0.000058  -0.000058   0.000003
    17  H   -0.002817   0.000237  -0.000188   0.004763   0.000150   0.000006
    18  H    0.004937  -0.000246  -0.000135  -0.009473   0.004744   0.000218
    19  H   -0.005840   0.001234   0.000759  -0.001606  -0.000055  -0.000005
    20  H    0.367513  -0.036009   0.002144  -0.001734  -0.000223   0.000007
    21  H    0.373061  -0.026053   0.004750   0.003842  -0.000065   0.000004
    22  H   -0.026600   0.373969  -0.028443   0.003657  -0.000023   0.000006
    23  H   -0.038746   0.378852  -0.033137  -0.000850  -0.000182  -0.000004
    24  H   -0.003081  -0.034680   0.378081  -0.047615  -0.002387   0.000120
    25  H    0.005181  -0.024912   0.377269  -0.038262  -0.005445   0.002929
    26  H    0.000004  -0.000007   0.000210   0.005186  -0.021179   0.353268
    27  H   -0.000000   0.000084   0.001040  -0.000239  -0.019943   0.355207
    28  H   -0.000004   0.000069  -0.001373   0.001255  -0.020194   0.354191
              13         14         15         16         17         18
     1  C   -0.000106   0.380925   0.373121   0.373579  -0.000013  -0.000010
     2  O   -0.003606  -0.031358  -0.031477  -0.031512   0.000103   0.000022
     3  C    0.020639   0.004550  -0.005360  -0.004151  -0.003253  -0.005422
     4  O   -0.002652   0.000752   0.006585   0.004712   0.006351   0.001063
     5  C    0.004742  -0.000013  -0.000026   0.000000  -0.025174  -0.023274
     6  C   -0.008538   0.000001  -0.000009   0.000016   0.359225   0.364274
     7  C    0.000581  -0.000002   0.000016  -0.000011  -0.002817   0.004937
     8  C   -0.000137   0.000000  -0.000000  -0.000000   0.000237  -0.000246
     9  C    0.003020   0.000002   0.000000   0.000001  -0.000188  -0.000135
    10  N   -0.100734   0.000000  -0.000023  -0.000058   0.004763  -0.009473
    11  C    0.557062  -0.000018   0.000028  -0.000058   0.000150   0.004744
    12  C   -0.077219  -0.000001   0.000000   0.000003   0.000006   0.000218
    13  O    8.176759  -0.000012   0.000005   0.000570   0.000106   0.012663
    14  H   -0.000012   0.523114  -0.029386  -0.029627  -0.000000  -0.000000
    15  H    0.000005  -0.029386   0.547727  -0.036479   0.000003  -0.000000
    16  H    0.000570  -0.029627  -0.036479   0.547215  -0.000001  -0.000001
    17  H    0.000106  -0.000000   0.000003  -0.000001   0.548720  -0.025103
    18  H    0.012663  -0.000000  -0.000000  -0.000001  -0.025103   0.534719
    19  H    0.000063  -0.000000  -0.000000   0.000000  -0.026175  -0.027267
    20  H    0.000013  -0.000011  -0.000027   0.000033   0.000001  -0.000175
    21  H   -0.000001  -0.000000  -0.000001   0.000001   0.002083   0.000181
    22  H    0.000001  -0.000000   0.000000  -0.000000  -0.000000   0.000004
    23  H    0.000000   0.000000   0.000000  -0.000000   0.000107  -0.000125
    24  H    0.000032  -0.000004   0.000002   0.000001   0.000010  -0.000013
    25  H    0.000011  -0.000000  -0.000000  -0.000000  -0.000003   0.000017
    26  H    0.005111   0.000000   0.000000  -0.000000  -0.000000   0.000003
    27  H    0.001246   0.000000   0.000000  -0.000001   0.000000  -0.000001
    28  H    0.001484   0.000000  -0.000000   0.000000  -0.000001  -0.000043
              19         20         21         22         23         24
     1  C    0.000002  -0.000335  -0.000004  -0.000001   0.000000  -0.000007
     2  O   -0.000039   0.009121   0.000178  -0.000006  -0.000008   0.000535
     3  C    0.005109  -0.006265   0.000393  -0.000058   0.000137   0.000442
     4  O    0.000433  -0.000236   0.000053   0.000000  -0.000000   0.000000
     5  C   -0.029880  -0.037202  -0.032893   0.004029  -0.000220   0.001681
     6  C    0.364603   0.005453  -0.004133  -0.000047   0.000606  -0.000206
     7  C   -0.005840   0.367513   0.373061  -0.026600  -0.038746  -0.003081
     8  C    0.001234  -0.036009  -0.026053   0.373969   0.378852  -0.034680
     9  C    0.000759   0.002144   0.004750  -0.028443  -0.033137   0.378081
    10  N   -0.001606  -0.001734   0.003842   0.003657  -0.000850  -0.047615
    11  C   -0.000055  -0.000223  -0.000065  -0.000023  -0.000182  -0.002387
    12  C   -0.000005   0.000007   0.000004   0.000006  -0.000004   0.000120
    13  O    0.000063   0.000013  -0.000001   0.000001   0.000000   0.000032
    14  H   -0.000000  -0.000011  -0.000000  -0.000000   0.000000  -0.000004
    15  H   -0.000000  -0.000027  -0.000001   0.000000   0.000000   0.000002
    16  H    0.000000   0.000033   0.000001  -0.000000  -0.000000   0.000001
    17  H   -0.026175   0.000001   0.002083  -0.000000   0.000107   0.000010
    18  H   -0.027267  -0.000175   0.000181   0.000004  -0.000125  -0.000013
    19  H    0.560899   0.000076   0.000338  -0.000044   0.003245   0.000018
    20  H    0.000076   0.557978  -0.029415  -0.005878   0.004643   0.001940
    21  H    0.000338  -0.029415   0.541067   0.000523  -0.005457  -0.000115
    22  H   -0.000044  -0.005878   0.000523   0.544798  -0.030795  -0.004093
    23  H    0.003245   0.004643  -0.005457  -0.030795   0.557413   0.004718
    24  H    0.000018   0.001940  -0.000115  -0.004093   0.004718   0.575729
    25  H   -0.000117  -0.000047  -0.000115   0.001319  -0.006929  -0.042863
    26  H   -0.000000  -0.000000  -0.000000  -0.000000  -0.000000  -0.000014
    27  H    0.000000  -0.000002  -0.000000  -0.000002   0.000003   0.002356
    28  H   -0.000002  -0.000000   0.000000  -0.000002  -0.000006  -0.000354
              25         26         27         28
     1  C   -0.000000  -0.000000  -0.000002   0.000000
     2  O    0.000009   0.000003   0.000073  -0.000001
     3  C   -0.000101   0.000002   0.000004   0.000009
     4  O    0.000001   0.000000   0.000000   0.000000
     5  C    0.003604  -0.000138  -0.000168  -0.000215
     6  C    0.000028   0.000007  -0.000006   0.000050
     7  C    0.005181   0.000004  -0.000000  -0.000004
     8  C   -0.024912  -0.000007   0.000084   0.000069
     9  C    0.377269   0.000210   0.001040  -0.001373
    10  N   -0.038262   0.005186  -0.000239   0.001255
    11  C   -0.005445  -0.021179  -0.019943  -0.020194
    12  C    0.002929   0.353268   0.355207   0.354191
    13  O    0.000011   0.005111   0.001246   0.001484
    14  H   -0.000000   0.000000   0.000000   0.000000
    15  H   -0.000000   0.000000   0.000000  -0.000000
    16  H   -0.000000  -0.000000  -0.000001   0.000000
    17  H   -0.000003  -0.000000   0.000000  -0.000001
    18  H    0.000017   0.000003  -0.000001  -0.000043
    19  H   -0.000117  -0.000000   0.000000  -0.000002
    20  H   -0.000047  -0.000000  -0.000002  -0.000000
    21  H   -0.000115  -0.000000  -0.000000   0.000000
    22  H    0.001319  -0.000000  -0.000002  -0.000002
    23  H   -0.006929  -0.000000   0.000003  -0.000006
    24  H   -0.042863  -0.000014   0.002356  -0.000354
    25  H    0.549938   0.000102  -0.001475   0.003801
    26  H    0.000102   0.522266  -0.021364  -0.020662
    27  H   -0.001475  -0.021364   0.520883  -0.026463
    28  H    0.003801  -0.020662  -0.026463   0.519507
 Mulliken charges:
               1
     1  C   -0.224972
     2  O   -0.461920
     3  C    0.664172
     4  O   -0.544312
     5  C    0.152900
     6  C   -0.454471
     7  C   -0.313889
     8  C   -0.304112
     9  C   -0.122214
    10  N   -0.434560
    11  C    0.590118
    12  C   -0.546947
    13  O   -0.591103
    14  H    0.181086
    15  H    0.175302
    16  H    0.175769
    17  H    0.160864
    18  H    0.168444
    19  H    0.154250
    20  H    0.168636
    21  H    0.171779
    22  H    0.167685
    23  H    0.166735
    24  H    0.169770
    25  H    0.176060
    26  H    0.177203
    27  H    0.188771
    28  H    0.188956
 Sum of Mulliken charges =  -0.00000
 Mulliken charges with hydrogens summed into heavy atoms:
               1
     1  C    0.307185
     2  O   -0.461920
     3  C    0.664172
     4  O   -0.544312
     5  C    0.152900
     6  C    0.029086
     7  C    0.026526
     8  C    0.030308
     9  C    0.223616
    10  N   -0.434560
    11  C    0.590118
    12  C    0.007984
    13  O   -0.591103
 Electronic spatial extent (au):  <R**2>=           2229.2381
 Charge=             -0.0000 electrons
 Dipole moment (field-independent basis, Debye):
    X=             -4.2751    Y=             -2.4987    Z=             -5.0707  Tot=              7.0874
 Quadrupole moment (field-independent basis, Debye-Ang):
   XX=            -70.3752   YY=            -75.6596   ZZ=            -78.4428
   XY=              1.2634   XZ=             -6.5168   YZ=             -4.5167
 Traceless Quadrupole moment (field-independent basis, Debye-Ang):
   XX=              4.4507   YY=             -0.8338   ZZ=             -3.6169
   XY=              1.2634   XZ=             -6.5168   YZ=             -4.5167
 Octapole moment (field-independent basis, Debye-Ang**2):
  XXX=             -2.0931  YYY=             -6.3514  ZZZ=            -12.2804  XYY=             -3.0535
  XXY=             16.7187  XXZ=            -26.6536  XZZ=              0.7668  YZZ=             -2.0456
  YYZ=            -11.6602  XYZ=             -2.6103
 Hexadecapole moment (field-independent basis, Debye-Ang**3):
 XXXX=          -1268.1175 YYYY=           -974.0021 ZZZZ=           -545.3048 XXXY=             24.4440
 XXXZ=            -66.4851 YYYX=             -9.7885 YYYZ=            -15.3320 ZZZX=            -12.1117
 ZZZY=             -5.9366 XXYY=           -358.8050 XXZZ=           -305.0118 YYZZ=           -259.0674
 XXYZ=             -1.2945 YYXZ=             -2.2771 ZZXY=             10.7245
 N-N= 8.988892009563D+02 E-N=-3.272547188769D+03  KE= 6.266966045008D+02
 No NMR shielding tensors so no spin-rotation constants.
 Leave Link  601 at Thu Mar 30 09:38:47 2023, MaxMem=   104857600 cpu:               0.4 elap:               0.2
 (Enter /dades/curu/g16A03_MST/g16/l9999.exe)
 1\1\GINC-PIRINEUS14\SP\RB3LYP\6-31G(d)\C9H15N1O3\UBATOR01\30-Mar-2023\
 0\\#p B3LYP/6-31G(d) scrf=(iefpcm,read,solvent=water) geom=allcheck gu
 ess=read\\2Mep.n.39_WATER\\0,1\C,0,1.9752026379,0.8032442791,0.2021695
 855\O,0,1.5314451092,1.9484589034,0.9536590558\C,0,0.2736139081,1.8902
 416544,1.4182779602\O,0,-0.4807650826,0.9626163896,1.1969278835\C,0,-0
 .1200588226,3.1734516083,2.1575262202\C,0,-1.4195564798,2.9533982715,2
 .9373356783\C,0,-0.2354931649,4.348449434,1.1509254671\C,0,0.208238697
 5,5.5739825899,1.961522833\C,0,1.3553588543,5.0274958555,2.8168352159\
 N,0,0.9677101599,3.6278123103,3.0442056646\C,0,1.5522424318,2.77745754
 58,3.9199539005\C,0,2.6511496548,3.3494659519,4.788435005\O,0,1.201061
 8056,1.5900811813,3.9941361526\H,0,2.994310374,1.0320028098,-0.1032690
 737\H,0,1.3388532467,0.6502699325,-0.6708288653\H,0,1.9564188065,-0.08
 99145709,0.8290574987\H,0,-2.1989107031,2.5785902347,2.2713931918\H,0,
 -1.25845338,2.2265832677,3.7343249923\H,0,-1.75155717,3.8969910874,3.3
 768015143\H,0,0.4499427391,4.1857658041,0.3153394466\H,0,-1.2484302207
 ,4.4309844206,0.7534169892\H,0,0.5244773773,6.4053479888,1.3287543224\
 H,0,-0.6058857617,5.9247859028,2.6021391291\H,0,2.3101180736,5.0754200
 276,2.2797127092\H,0,1.4717567347,5.5544586792,3.7656028256\H,0,3.0082
 585543,2.5700454996,5.460993758\H,0,3.4866933763,3.7065262657,4.178576
 0513\H,0,2.2902582437,4.1979866756,5.3770748882\\Version=ES64L-G16RevA
 .03\State=1-A\HF=-632.4523053\RMSD=7.547e-09\Dipole=0.9802853,2.548368
 ,-0.5657699\Quadrupole=0.7865294,-1.9508578,1.1643284,-4.0900307,-1.31
 26829,4.8553758\PG=C01 [X(C9H15N1O3)]\\@


 "WHERE SHALL I START, PLEASE YOUR MAJESTY?" HE ASKED.
 "BEGIN AT THE BEGINNING," THE KING SAID GRAVELY,
 "AND GO ON TILL YOU COME TO THE END: THEN STOP." 

                                      -- LEWIS CARROLL
 Job cpu time:       0 days  0 hours  7 minutes 49.8 seconds.
 Elapsed time:       0 days  0 hours  2 minutes  1.8 seconds.
 File lengths (MBytes):  RWF=    107 Int=      0 D2E=      0 Chk=     13 Scr=      1
 Normal termination of Gaussian 16 at Thu Mar 30 09:38:47 2023.
