 Entering Gaussian System, Link 0=g16
 Input=2Mep.n.20.dat
 Output=2Mep.n.20.log
 Initial command:
 /dades/curu/g16A03_MST/g16/l1.exe "/tmp/ubator01/2153949/Gau-106547.inp" -scrdir="/tmp/ubator01/2153949/"
 Entering Link 1 = /dades/curu/g16A03_MST/g16/l1.exe PID=    106548.
  
 Copyright (c) 1988,1990,1992,1993,1995,1998,2003,2009,2016,
            Gaussian, Inc.  All Rights Reserved.
  
 This is part of the Gaussian(R) 16 program.  It is based on
 the Gaussian(R) 09 system (copyright 2009, Gaussian, Inc.),
 the Gaussian(R) 03 system (copyright 2003, Gaussian, Inc.),
 the Gaussian(R) 98 system (copyright 1998, Gaussian, Inc.),
 the Gaussian(R) 94 system (copyright 1995, Gaussian, Inc.),
 the Gaussian 92(TM) system (copyright 1992, Gaussian, Inc.),
 the Gaussian 90(TM) system (copyright 1990, Gaussian, Inc.),
 the Gaussian 88(TM) system (copyright 1988, Gaussian, Inc.),
 the Gaussian 86(TM) system (copyright 1986, Carnegie Mellon
 University), and the Gaussian 82(TM) system (copyright 1983,
 Carnegie Mellon University). Gaussian is a federally registered
 trademark of Gaussian, Inc.
  
 This software contains proprietary and confidential information,
 including trade secrets, belonging to Gaussian, Inc.
  
 This software is provided under written license and may be
 used, copied, transmitted, or stored only in accord with that
 written license.
  
 The following legend is applicable only to US Government
 contracts under FAR:
  
                    RESTRICTED RIGHTS LEGEND
  
 Use, reproduction and disclosure by the US Government is
 subject to restrictions as set forth in subparagraphs (a)
 and (c) of the Commercial Computer Software - Restricted
 Rights clause in FAR 52.227-19.
  
 Gaussian, Inc.
 340 Quinnipiac St., Bldg. 40, Wallingford CT 06492
  
  
 ---------------------------------------------------------------
 Warning -- This program may not be used in any manner that
 competes with the business of Gaussian, Inc. or will provide
 assistance to any competitor of Gaussian, Inc.  The licensee
 of this program is prohibited from giving any competitor of
 Gaussian, Inc. access to this program.  By using this program,
 the user acknowledges that Gaussian, Inc. is engaged in the
 business of creating and licensing software in the field of
 computational chemistry and represents and warrants to the
 licensee that it is not a competitor of Gaussian, Inc. and that
 it will not use this program in any manner prohibited above.
 ---------------------------------------------------------------
  

 Cite this work as:
 Gaussian 16, Revision A.03,
 M. J. Frisch, G. W. Trucks, H. B. Schlegel, G. E. Scuseria, 
 M. A. Robb, J. R. Cheeseman, G. Scalmani, V. Barone, 
 G. A. Petersson, H. Nakatsuji, X. Li, M. Caricato, A. V. Marenich, 
 J. Bloino, B. G. Janesko, R. Gomperts, B. Mennucci, H. P. Hratchian, 
 J. V. Ortiz, A. F. Izmaylov, J. L. Sonnenberg, D. Williams-Young, 
 F. Ding, F. Lipparini, F. Egidi, J. Goings, B. Peng, A. Petrone, 
 T. Henderson, D. Ranasinghe, V. G. Zakrzewski, J. Gao, N. Rega, 
 G. Zheng, W. Liang, M. Hada, M. Ehara, K. Toyota, R. Fukuda, 
 J. Hasegawa, M. Ishida, T. Nakajima, Y. Honda, O. Kitao, H. Nakai, 
 T. Vreven, K. Throssell, J. A. Montgomery, Jr., J. E. Peralta, 
 F. Ogliaro, M. J. Bearpark, J. J. Heyd, E. N. Brothers, K. N. Kudin, 
 V. N. Staroverov, T. A. Keith, R. Kobayashi, J. Normand, 
 K. Raghavachari, A. P. Rendell, J. C. Burant, S. S. Iyengar, 
 J. Tomasi, M. Cossi, J. M. Millam, M. Klene, C. Adamo, R. Cammi, 
 J. W. Ochterski, R. L. Martin, K. Morokuma, O. Farkas, 
 J. B. Foresman, and D. J. Fox, Gaussian, Inc., Wallingford CT, 2016.
 
 ******************************************
 Gaussian 16:  ES64L-G16RevA.03 25-Dec-2016
                30-Mar-2023 
 ******************************************
 %nproc=4
 Will use up to    4 processors via shared memory.
 %Chk=2Mep.n.20_WATER.chk
 %mem=800MB
 ----------------------------------------------------------------------
 #p b3lyp/6-31G(d) opt=(MaxStep=10,MaxCycles=1000) freq scf=(MaxCycle=2
 000,NoVarAcc,NoIncFock) scrf=(iefpcm,read,solvent=water)
 ----------------------------------------------------------------------
 1/6=1000,8=10,18=20,19=15,26=3,38=1,40=2/1,3;
 2/9=110,12=2,17=6,18=5,40=1/2;
 3/5=1,6=6,7=1,11=2,25=1,30=1,70=2203,71=1,72=1,74=-5/1,2,3;
 4//1;
 5/5=100002,7=2000,38=1,53=1/2;
 6/7=2,8=2,9=2,10=2,28=1/1;
 7//1,2,3,16;
 1/6=1000,8=10,18=20,19=15,26=3/3(2);
 2/9=110/2;
 99//99;
 2/9=110/2;
 3/5=1,6=6,7=1,11=2,25=1,30=1,70=2205,71=1,72=1,74=-5/1,2,3;
 4/5=5,16=3,69=1/1;
 5/5=100002,7=2000,38=1,53=1/2;
 7//1,2,3,16;
 1/6=1000,8=10,18=20,19=15,26=3/3(-5);
 2/9=110/2;
 6/7=2,8=2,9=2,10=2,19=2,28=1/1;
 99/9=1/99;
 Leave Link    1 at Thu Mar 30 08:48:52 2023, MaxMem=   104857600 cpu:               0.1 elap:               0.0
 (Enter /dades/curu/g16A03_MST/g16/l101.exe)
 ---------------
 2Mep.n.20_WATER
 ---------------
 Symbolic Z-matrix:
 Charge =  0 Multiplicity = 1
 C                     3.626     1.6       1.094 
 O                     2.631     2.481     1.663 
 C                     1.376     2.006     1.703 
 O                     1.061     0.914     1.262 
 C                     0.375     3.03      2.263 
 C                    -0.948     2.331     2.592 
 C                     0.171     4.176     1.224 
 C                     1.088     5.315     1.686 
 C                     1.052     5.196     3.211 
 N                     0.947     3.741     3.431 
 C                     1.481     3.054     4.469 
 C                     2.061     3.854     5.615 
 O                     1.501     1.807     4.476 
 H                     4.565     2.152     1.15 
 H                     3.38      1.37      0.055 
 H                     3.69      0.678     1.676 
 H                    -1.387     1.911     1.682 
 H                    -0.808     1.524     3.315 
 H                    -1.65      3.062     3.007 
 H                     0.376     3.841     0.203 
 H                    -0.877     4.491     1.265 
 H                     2.109     5.162     1.325 
 H                     0.744     6.295     1.342 
 H                     1.946     5.596     3.691 
 H                     0.176     5.709     3.63 
 H                     2.253     3.177     6.449 
 H                     3.009     4.317     5.313 
 H                     1.387     4.654     5.939 
 
 ITRead=  0  0  0  0  0  0  0  0  0  0  0  0  0  0  0  0  0  0  0  0
 ITRead=  0  0  0  0  0  0  0  0
 MicOpt= -1 -1 -1 -1 -1 -1 -1 -1 -1 -1 -1 -1 -1 -1 -1 -1 -1 -1 -1 -1
 MicOpt= -1 -1 -1 -1 -1 -1 -1 -1
 NAtoms=     28 NQM=       28 NQMF=       0 NMMI=      0 NMMIF=      0
                NMic=       0 NMicF=      0.
                    Isotopes and Nuclear Properties:
 (Nuclear quadrupole moments (NQMom) in fm**2, nuclear magnetic moments (NMagM)
  in nuclear magnetons)

  Atom         1           2           3           4           5           6           7           8           9          10
 IAtWgt=          12          16          12          16          12          12          12          12          12          14
 AtmWgt=  12.0000000  15.9949146  12.0000000  15.9949146  12.0000000  12.0000000  12.0000000  12.0000000  12.0000000  14.0030740
 NucSpn=           0           0           0           0           0           0           0           0           0           2
 AtZEff=  -0.0000000  -0.0000000  -0.0000000  -0.0000000  -0.0000000  -0.0000000  -0.0000000  -0.0000000  -0.0000000  -0.0000000
 NQMom=    0.0000000   0.0000000   0.0000000   0.0000000   0.0000000   0.0000000   0.0000000   0.0000000   0.0000000   2.0440000
 NMagM=    0.0000000   0.0000000   0.0000000   0.0000000   0.0000000   0.0000000   0.0000000   0.0000000   0.0000000   0.4037610
 AtZNuc=   6.0000000   8.0000000   6.0000000   8.0000000   6.0000000   6.0000000   6.0000000   6.0000000   6.0000000   7.0000000

  Atom        11          12          13          14          15          16          17          18          19          20
 IAtWgt=          12          12          16           1           1           1           1           1           1           1
 AtmWgt=  12.0000000  12.0000000  15.9949146   1.0078250   1.0078250   1.0078250   1.0078250   1.0078250   1.0078250   1.0078250
 NucSpn=           0           0           0           1           1           1           1           1           1           1
 AtZEff=  -0.0000000  -0.0000000  -0.0000000  -0.0000000  -0.0000000  -0.0000000  -0.0000000  -0.0000000  -0.0000000  -0.0000000
 NQMom=    0.0000000   0.0000000   0.0000000   0.0000000   0.0000000   0.0000000   0.0000000   0.0000000   0.0000000   0.0000000
 NMagM=    0.0000000   0.0000000   0.0000000   2.7928460   2.7928460   2.7928460   2.7928460   2.7928460   2.7928460   2.7928460
 AtZNuc=   6.0000000   6.0000000   8.0000000   1.0000000   1.0000000   1.0000000   1.0000000   1.0000000   1.0000000   1.0000000

  Atom        21          22          23          24          25          26          27          28
 IAtWgt=           1           1           1           1           1           1           1           1
 AtmWgt=   1.0078250   1.0078250   1.0078250   1.0078250   1.0078250   1.0078250   1.0078250   1.0078250
 NucSpn=           1           1           1           1           1           1           1           1
 AtZEff=  -0.0000000  -0.0000000  -0.0000000  -0.0000000  -0.0000000  -0.0000000  -0.0000000  -0.0000000
 NQMom=    0.0000000   0.0000000   0.0000000   0.0000000   0.0000000   0.0000000   0.0000000   0.0000000
 NMagM=    2.7928460   2.7928460   2.7928460   2.7928460   2.7928460   2.7928460   2.7928460   2.7928460
 AtZNuc=   1.0000000   1.0000000   1.0000000   1.0000000   1.0000000   1.0000000   1.0000000   1.0000000
 Leave Link  101 at Thu Mar 30 08:48:52 2023, MaxMem=   104857600 cpu:               0.2 elap:               0.2
 (Enter /dades/curu/g16A03_MST/g16/l103.exe)

 GradGradGradGradGradGradGradGradGradGradGradGradGradGradGradGradGradGrad
 Berny optimization.
 Initialization pass.
                           ----------------------------
                           !    Initial Parameters    !
                           ! (Angstroms and Degrees)  !
 --------------------------                            --------------------------
 ! Name  Definition              Value          Derivative Info.                !
 --------------------------------------------------------------------------------
 ! R1    R(1,2)                  1.4457         estimate D2E/DX2                !
 ! R2    R(1,14)                 1.0907         estimate D2E/DX2                !
 ! R3    R(1,15)                 1.0922         estimate D2E/DX2                !
 ! R4    R(1,16)                 1.0922         estimate D2E/DX2                !
 ! R5    R(2,3)                  1.3425         estimate D2E/DX2                !
 ! R6    R(3,4)                  1.2191         estimate D2E/DX2                !
 ! R7    R(3,5)                  1.5376         estimate D2E/DX2                !
 ! R8    R(5,6)                  1.532          estimate D2E/DX2                !
 ! R9    R(5,7)                  1.5603         estimate D2E/DX2                !
 ! R10   R(5,10)                 1.4822         estimate D2E/DX2                !
 ! R11   R(6,17)                 1.0942         estimate D2E/DX2                !
 ! R12   R(6,18)                 1.0925         estimate D2E/DX2                !
 ! R13   R(6,19)                 1.0952         estimate D2E/DX2                !
 ! R14   R(7,8)                  1.5335         estimate D2E/DX2                !
 ! R15   R(7,20)                 1.0939         estimate D2E/DX2                !
 ! R16   R(7,21)                 1.0951         estimate D2E/DX2                !
 ! R17   R(8,9)                  1.5301         estimate D2E/DX2                !
 ! R18   R(8,22)                 1.0937         estimate D2E/DX2                !
 ! R19   R(8,23)                 1.0941         estimate D2E/DX2                !
 ! R20   R(9,10)                 1.4753         estimate D2E/DX2                !
 ! R21   R(9,24)                 1.0907         estimate D2E/DX2                !
 ! R22   R(9,25)                 1.0982         estimate D2E/DX2                !
 ! R23   R(10,11)                1.3545         estimate D2E/DX2                !
 ! R24   R(11,12)                1.5132         estimate D2E/DX2                !
 ! R25   R(11,13)                1.2472         estimate D2E/DX2                !
 ! R26   R(12,26)                1.0912         estimate D2E/DX2                !
 ! R27   R(12,27)                1.0974         estimate D2E/DX2                !
 ! R28   R(12,28)                1.0951         estimate D2E/DX2                !
 ! A1    A(2,1,14)             105.3026         estimate D2E/DX2                !
 ! A2    A(2,1,15)             110.3482         estimate D2E/DX2                !
 ! A3    A(2,1,16)             110.1843         estimate D2E/DX2                !
 ! A4    A(14,1,15)            110.4463         estimate D2E/DX2                !
 ! A5    A(14,1,16)            110.4527         estimate D2E/DX2                !
 ! A6    A(15,1,16)            110.0194         estimate D2E/DX2                !
 ! A7    A(1,2,3)              116.0733         estimate D2E/DX2                !
 ! A8    A(2,3,4)              123.2102         estimate D2E/DX2                !
 ! A9    A(2,3,5)              112.5699         estimate D2E/DX2                !
 ! A10   A(4,3,5)              124.0617         estimate D2E/DX2                !
 ! A11   A(3,5,6)              109.6666         estimate D2E/DX2                !
 ! A12   A(3,5,7)              109.3745         estimate D2E/DX2                !
 ! A13   A(3,5,10)             110.8074         estimate D2E/DX2                !
 ! A14   A(6,5,7)              111.4203         estimate D2E/DX2                !
 ! A15   A(6,5,10)             112.5129         estimate D2E/DX2                !
 ! A16   A(7,5,10)             102.878          estimate D2E/DX2                !
 ! A17   A(5,6,17)             110.06           estimate D2E/DX2                !
 ! A18   A(5,6,18)             111.6214         estimate D2E/DX2                !
 ! A19   A(5,6,19)             109.2913         estimate D2E/DX2                !
 ! A20   A(17,6,18)            108.5579         estimate D2E/DX2                !
 ! A21   A(17,6,19)            108.3117         estimate D2E/DX2                !
 ! A22   A(18,6,19)            108.9299         estimate D2E/DX2                !
 ! A23   A(5,7,8)              105.4699         estimate D2E/DX2                !
 ! A24   A(5,7,20)             111.8443         estimate D2E/DX2                !
 ! A25   A(5,7,21)             108.1477         estimate D2E/DX2                !
 ! A26   A(8,7,20)             113.3644         estimate D2E/DX2                !
 ! A27   A(8,7,21)             110.3244         estimate D2E/DX2                !
 ! A28   A(20,7,21)            107.6001         estimate D2E/DX2                !
 ! A29   A(7,8,9)              103.2051         estimate D2E/DX2                !
 ! A30   A(7,8,22)             110.7863         estimate D2E/DX2                !
 ! A31   A(7,8,23)             112.4914         estimate D2E/DX2                !
 ! A32   A(9,8,22)             109.8809         estimate D2E/DX2                !
 ! A33   A(9,8,23)             112.0637         estimate D2E/DX2                !
 ! A34   A(22,8,23)            108.363          estimate D2E/DX2                !
 ! A35   A(8,9,10)             103.1212         estimate D2E/DX2                !
 ! A36   A(8,9,24)             113.0055         estimate D2E/DX2                !
 ! A37   A(8,9,25)             111.2661         estimate D2E/DX2                !
 ! A38   A(10,9,24)            110.7569         estimate D2E/DX2                !
 ! A39   A(10,9,25)            110.3057         estimate D2E/DX2                !
 ! A40   A(24,9,25)            108.3358         estimate D2E/DX2                !
 ! A41   A(5,10,9)             112.5228         estimate D2E/DX2                !
 ! A42   A(5,10,11)            120.8466         estimate D2E/DX2                !
 ! A43   A(9,10,11)            125.9063         estimate D2E/DX2                !
 ! A44   A(10,11,12)           117.6038         estimate D2E/DX2                !
 ! A45   A(10,11,13)           121.1823         estimate D2E/DX2                !
 ! A46   A(12,11,13)           121.2125         estimate D2E/DX2                !
 ! A47   A(11,12,26)           108.5582         estimate D2E/DX2                !
 ! A48   A(11,12,27)           110.228          estimate D2E/DX2                !
 ! A49   A(11,12,28)           111.9861         estimate D2E/DX2                !
 ! A50   A(26,12,27)           108.6682         estimate D2E/DX2                !
 ! A51   A(26,12,28)           109.5964         estimate D2E/DX2                !
 ! A52   A(27,12,28)           107.7513         estimate D2E/DX2                !
 ! D1    D(14,1,2,3)          -179.9047         estimate D2E/DX2                !
 ! D2    D(15,1,2,3)            60.9024         estimate D2E/DX2                !
 ! D3    D(16,1,2,3)           -60.7894         estimate D2E/DX2                !
 ! D4    D(1,2,3,4)             -1.8025         estimate D2E/DX2                !
 ! D5    D(1,2,3,5)           -177.3958         estimate D2E/DX2                !
 ! D6    D(2,3,5,6)           -166.6189         estimate D2E/DX2                !
 ! D7    D(2,3,5,7)             70.9158         estimate D2E/DX2                !
 ! D8    D(2,3,5,10)           -41.8132         estimate D2E/DX2                !
 ! D9    D(4,3,5,6)             17.8317         estimate D2E/DX2                !
 ! D10   D(4,3,5,7)           -104.6336         estimate D2E/DX2                !
 ! D11   D(4,3,5,10)           142.6374         estimate D2E/DX2                !
 ! D12   D(3,5,6,17)           -62.1826         estimate D2E/DX2                !
 ! D13   D(3,5,6,18)            58.4276         estimate D2E/DX2                !
 ! D14   D(3,5,6,19)           178.9889         estimate D2E/DX2                !
 ! D15   D(7,5,6,17)            59.0584         estimate D2E/DX2                !
 ! D16   D(7,5,6,18)           179.6685         estimate D2E/DX2                !
 ! D17   D(7,5,6,19)           -59.7701         estimate D2E/DX2                !
 ! D18   D(10,5,6,17)          174.0044         estimate D2E/DX2                !
 ! D19   D(10,5,6,18)          -65.3854         estimate D2E/DX2                !
 ! D20   D(10,5,6,19)           55.1759         estimate D2E/DX2                !
 ! D21   D(3,5,7,8)            -98.0037         estimate D2E/DX2                !
 ! D22   D(3,5,7,20)            25.656          estimate D2E/DX2                !
 ! D23   D(3,5,7,21)           143.9638         estimate D2E/DX2                !
 ! D24   D(6,5,7,8)            140.5852         estimate D2E/DX2                !
 ! D25   D(6,5,7,20)           -95.7551         estimate D2E/DX2                !
 ! D26   D(6,5,7,21)            22.5527         estimate D2E/DX2                !
 ! D27   D(10,5,7,8)            19.8144         estimate D2E/DX2                !
 ! D28   D(10,5,7,20)          143.4741         estimate D2E/DX2                !
 ! D29   D(10,5,7,21)          -98.2181         estimate D2E/DX2                !
 ! D30   D(3,5,10,9)           119.1125         estimate D2E/DX2                !
 ! D31   D(3,5,10,11)          -51.6924         estimate D2E/DX2                !
 ! D32   D(6,5,10,9)          -117.7101         estimate D2E/DX2                !
 ! D33   D(6,5,10,11)           71.4851         estimate D2E/DX2                !
 ! D34   D(7,5,10,9)             2.3094         estimate D2E/DX2                !
 ! D35   D(7,5,10,11)         -168.4955         estimate D2E/DX2                !
 ! D36   D(5,7,8,9)            -33.9113         estimate D2E/DX2                !
 ! D37   D(5,7,8,22)            83.6495         estimate D2E/DX2                !
 ! D38   D(5,7,8,23)          -154.8924         estimate D2E/DX2                !
 ! D39   D(20,7,8,9)          -156.603          estimate D2E/DX2                !
 ! D40   D(20,7,8,22)          -39.0422         estimate D2E/DX2                !
 ! D41   D(20,7,8,23)           82.416          estimate D2E/DX2                !
 ! D42   D(21,7,8,9)            82.6492         estimate D2E/DX2                !
 ! D43   D(21,7,8,22)         -159.79           estimate D2E/DX2                !
 ! D44   D(21,7,8,23)          -38.3318         estimate D2E/DX2                !
 ! D45   D(7,8,9,10)            34.4324         estimate D2E/DX2                !
 ! D46   D(7,8,9,24)           154.0572         estimate D2E/DX2                !
 ! D47   D(7,8,9,25)           -83.8028         estimate D2E/DX2                !
 ! D48   D(22,8,9,10)          -83.7627         estimate D2E/DX2                !
 ! D49   D(22,8,9,24)           35.8622         estimate D2E/DX2                !
 ! D50   D(22,8,9,25)          158.0022         estimate D2E/DX2                !
 ! D51   D(23,8,9,10)          155.7036         estimate D2E/DX2                !
 ! D52   D(23,8,9,24)          -84.6716         estimate D2E/DX2                !
 ! D53   D(23,8,9,25)           37.4684         estimate D2E/DX2                !
 ! D54   D(8,9,10,5)           -23.3426         estimate D2E/DX2                !
 ! D55   D(8,9,10,11)          146.9056         estimate D2E/DX2                !
 ! D56   D(24,9,10,5)         -144.5071         estimate D2E/DX2                !
 ! D57   D(24,9,10,11)          25.7412         estimate D2E/DX2                !
 ! D58   D(25,9,10,5)           95.562          estimate D2E/DX2                !
 ! D59   D(25,9,10,11)         -94.1898         estimate D2E/DX2                !
 ! D60   D(5,10,11,12)         179.207          estimate D2E/DX2                !
 ! D61   D(5,10,11,13)          -0.3732         estimate D2E/DX2                !
 ! D62   D(9,10,11,12)           9.7072         estimate D2E/DX2                !
 ! D63   D(9,10,11,13)        -169.873          estimate D2E/DX2                !
 ! D64   D(10,11,12,26)        168.1844         estimate D2E/DX2                !
 ! D65   D(10,11,12,27)        -72.8983         estimate D2E/DX2                !
 ! D66   D(10,11,12,28)         47.0476         estimate D2E/DX2                !
 ! D67   D(13,11,12,26)        -12.2355         estimate D2E/DX2                !
 ! D68   D(13,11,12,27)        106.6818         estimate D2E/DX2                !
 ! D69   D(13,11,12,28)       -133.3723         estimate D2E/DX2                !
 --------------------------------------------------------------------------------
 Trust Radius=1.00D-01 FncErr=1.00D-07 GrdErr=1.00D-06 EigMax=2.50D+02 EigMin=1.00D-04
 Number of steps in this run=    168 maximum allowed number of steps=    168.
 GradGradGradGradGradGradGradGradGradGradGradGradGradGradGradGradGradGrad

 Leave Link  103 at Thu Mar 30 08:48:52 2023, MaxMem=   104857600 cpu:               0.1 elap:               0.0
 (Enter /dades/curu/g16A03_MST/g16/l202.exe)
                          Input orientation:                          
 ---------------------------------------------------------------------
 Center     Atomic      Atomic             Coordinates (Angstroms)
 Number     Number       Type             X           Y           Z
 ---------------------------------------------------------------------
      1          6           0        3.626000    1.600000    1.094000
      2          8           0        2.631000    2.481000    1.663000
      3          6           0        1.376000    2.006000    1.703000
      4          8           0        1.061000    0.914000    1.262000
      5          6           0        0.375000    3.030000    2.263000
      6          6           0       -0.948000    2.331000    2.592000
      7          6           0        0.171000    4.176000    1.224000
      8          6           0        1.088000    5.315000    1.686000
      9          6           0        1.052000    5.196000    3.211000
     10          7           0        0.947000    3.741000    3.431000
     11          6           0        1.481000    3.054000    4.469000
     12          6           0        2.061000    3.854000    5.615000
     13          8           0        1.501000    1.807000    4.476000
     14          1           0        4.565000    2.152000    1.150000
     15          1           0        3.380000    1.370000    0.055000
     16          1           0        3.690000    0.678000    1.676000
     17          1           0       -1.387000    1.911000    1.682000
     18          1           0       -0.808000    1.524000    3.315000
     19          1           0       -1.650000    3.062000    3.007000
     20          1           0        0.376000    3.841000    0.203000
     21          1           0       -0.877000    4.491000    1.265000
     22          1           0        2.109000    5.162000    1.325000
     23          1           0        0.744000    6.295000    1.342000
     24          1           0        1.946000    5.596000    3.691000
     25          1           0        0.176000    5.709000    3.630000
     26          1           0        2.253000    3.177000    6.449000
     27          1           0        3.009000    4.317000    5.313000
     28          1           0        1.387000    4.654000    5.939000
 ---------------------------------------------------------------------
                    Distance matrix (angstroms):
                    1          2          3          4          5
     1  C    0.000000
     2  O    1.445665   0.000000
     3  C    2.366055   1.342479   0.000000
     4  O    2.660460   2.254150   1.219086   0.000000
     5  C    3.739046   2.398111   1.537588   2.439273   0.000000
     6  C    4.868248   3.700646   2.509367   2.795151   1.532048
     7  C    4.311578   3.019494   2.527917   3.381448   1.560273
     8  C    4.537966   3.226908   3.321553   4.421460   2.462219
     9  C    4.902895   3.501538   3.543323   4.704700   2.459388
    10  N    4.149999   2.747595   2.486011   3.565037   1.482204
    11  C    4.255087   3.086173   2.959744   3.878253   2.467843
    12  C    5.288590   4.222361   4.380419   5.347168   3.841546
    13  O    3.999550   3.105502   2.782940   3.364646   2.767846
    14  H    1.090670   2.027749   3.239884   3.717957   4.423319
    15  H    1.092217   2.093081   2.671407   2.653780   4.081775
    16  H    1.092201   2.091043   2.668128   2.671841   4.106787
    17  H    5.056939   4.058274   2.764712   2.676399   2.166649
    18  H    4.959735   3.933405   2.756941   2.842546   2.185001
    19  H    5.799413   4.524473   3.460091   3.874074   2.157588
    20  H    4.047031   3.011017   2.572397   3.187167   2.213893
    21  H    5.353889   4.062581   3.382762   4.068265   2.167494
    22  H    3.878465   2.752179   3.261979   4.375817   2.903795
    23  H    5.514567   4.267365   4.350318   5.390923   3.412422
    24  H    5.053199   3.779581   4.143084   5.348307   3.330403
    25  H    5.934448   4.507338   4.343448   5.420579   3.014188
    26  H    5.748746   4.851092   4.966376   5.783338   4.590326
    27  H    5.055961   4.103204   4.586885   5.637882   4.230464
    28  H    6.149314   4.955163   4.995570   5.997350   4.144212
                    6          7          8          9         10
     6  C    0.000000
     7  C    2.554919   0.000000
     8  C    3.724297   1.533510   0.000000
     9  C    3.548434   2.400985   1.530059   0.000000
    10  N    2.506600   2.379548   2.354226   1.475280   0.000000
    11  C    3.153712   3.674916   3.607168   2.520867   1.354463
    12  C    4.529033   4.791311   4.303288   2.932279   2.454307
    13  O    3.133948   4.237519   4.501192   3.645154   2.267002
    14  H    5.701278   4.838315   4.730898   5.084764   4.562653
    15  H    5.107981   4.420167   4.845250   5.478886   4.789416
    16  H    5.008244   4.982336   5.317168   5.452302   4.470575
    17  H    1.094176   2.786997   4.208665   4.367813   3.443175
    18  H    1.092510   3.516223   4.540940   4.117524   2.829942
    19  H    1.095167   2.781389   3.783873   3.449112   2.717577
    20  H    3.120961   1.093934   2.208825   3.367650   3.279638
    21  H    2.536054   1.095084   2.171967   2.829308   2.929340
    22  H    4.354894   2.176750   1.093696   2.162268   2.793693
    23  H    4.487612   2.198275   1.094108   2.189937   3.305760
    24  H    4.499251   3.354566   2.198897   1.090704   2.122882
    25  H    3.708329   2.852885   2.183144   1.098229   2.122985
    26  H    5.083165   5.712561   5.349246   4.000426   3.336474
    27  H    5.196719   4.979362   4.223905   3.003480   2.850534
    28  H    4.695845   4.892685   4.314433   2.801423   2.705038
                   11         12         13         14         15
    11  C    0.000000
    12  C    1.513181   0.000000
    13  O    1.247180   2.408554   0.000000
    14  H    4.619569   5.394724   4.535350   0.000000
    15  H    5.091704   6.230860   4.823572   1.792979   0.000000
    16  H    4.280877   5.315669   3.729123   1.793036   1.789582
    17  H    4.159236   5.579645   4.019676   5.980586   5.065975
    18  H    2.985320   4.353167   2.599902   5.826726   5.309488
    19  H    3.455527   4.604395   3.696185   6.550021   6.072732
    20  H    4.476511   5.668257   4.864289   4.614894   3.892526
    21  H    4.229746   5.287732   4.813446   5.924484   5.415421
    22  H    3.837028   4.485228   4.642681   3.888787   4.196142
    23  H    4.563483   5.094261   5.526043   5.639269   5.732407
    24  H    2.698754   2.597992   3.894967   5.017667   5.756382
    25  H    3.075056   3.306732   4.206774   6.169763   6.470948
    26  H    2.128735   1.091214   2.516969   5.871573   6.739333
    27  H    2.154597   1.097396   3.045445   4.943575   6.038958
    28  H    2.174796   1.095104   3.202932   6.268509   7.026960
                   16         17         18         19         20
    16  H    0.000000
    17  H    5.224582   0.000000
    18  H    4.861485   1.775303   0.000000
    19  H    5.997551   1.774710   1.780245   0.000000
    20  H    4.812161   3.003416   4.056463   3.545974   0.000000
    21  H    5.963672   2.662778   3.606986   2.382044   1.766452
    22  H    4.767496   4.787323   5.069914   4.622684   2.450962
    23  H    6.351469   4.886330   5.391092   4.353820   2.730359
    24  H    5.593611   5.359496   4.930221   4.451991   4.208452
    25  H    6.440285   4.545600   4.310650   3.275517   3.908165
    26  H    5.575975   6.129979   4.682316   5.205190   6.555650
    27  H    5.189783   6.188523   5.134427   5.347798   5.768134
    28  H    6.267819   5.774182   4.636842   4.511591   5.880883
                   21         22         23         24         25
    21  H    0.000000
    22  H    3.061052   0.000000
    23  H    2.426517   1.774036   0.000000
    24  H    3.882761   2.410992   2.729690   0.000000
    25  H    2.861041   3.057568   2.429190   1.774652   0.000000
    26  H    6.196560   5.496939   6.170936   3.681355   4.321078
    27  H    5.614052   4.174706   4.981119   2.323079   3.577156
    28  H    5.196012   4.697696   4.923285   2.500670   2.812655
                   26         27         28
    26  H    0.000000
    27  H    1.778098   0.000000
    28  H    1.786501   1.770968   0.000000
 Stoichiometry    C9H15NO3
 Framework group  C1[X(C9H15NO3)]
 Deg. of freedom    78
 Full point group                 C1      NOp   1
 Largest Abelian subgroup         C1      NOp   1
 Largest concise Abelian subgroup C1      NOp   1
                         Standard orientation:                         
 ---------------------------------------------------------------------
 Center     Atomic      Atomic             Coordinates (Angstroms)
 Number     Number       Type             X           Y           Z
 ---------------------------------------------------------------------
      1          6           0       -2.552152   -1.191153   -1.451184
      2          8           0       -1.378007   -0.476983   -1.002529
      3          6           0       -1.395369   -0.054472    0.271611
      4          8           0       -2.345514   -0.220336    1.017187
      5          6           0       -0.138201    0.748551    0.644251
      6          6           0       -0.061617    0.909810    2.165862
      7          6           0       -0.176484    2.133003   -0.074274
      8          6           0        0.700361    1.970740   -1.321860
      9          6           0        1.791806    1.003671   -0.858604
     10          7           0        1.077251    0.116321    0.078663
     11          6           0        1.334511   -1.198043    0.280741
     12          6           0        2.586874   -1.771731   -0.345506
     13          8           0        0.562596   -1.911346    0.952160
     14          1           0       -2.351986   -1.449168   -2.491820
     15          1           0       -3.435469   -0.552759   -1.379485
     16          1           0       -2.694496   -2.094823   -0.854508
     17          1           0       -0.926831    1.473557    2.527545
     18          1           0       -0.040511   -0.057806    2.672667
     19          1           0        0.844930    1.466720    2.425507
     20          1           0       -1.199941    2.445755   -0.301016
     21          1           0        0.256104    2.879423    0.600216
     22          1           0        0.130520    1.523533   -2.141286
     23          1           0        1.114488    2.922088   -1.669000
     24          1           0        2.228570    0.430109   -1.677078
     25          1           0        2.600423    1.534966   -0.339018
     26          1           0        2.762669   -2.763160    0.075105
     27          1           0        2.458196   -1.868462   -1.431030
     28          1           0        3.461592   -1.137156   -0.168209
 ---------------------------------------------------------------------
 Rotational constants (GHZ):           0.9633131           0.7629975           0.6549792
 Leave Link  202 at Thu Mar 30 08:48:52 2023, MaxMem=   104857600 cpu:               0.1 elap:               0.0
 (Enter /dades/curu/g16A03_MST/g16/l301.exe)
 Standard basis: 6-31G(d) (6D, 7F)
 Ernie: Thresh=  0.10000D-02 Tol=  0.10000D-05 Strict=F.
 There are   225 symmetry adapted cartesian basis functions of A   symmetry.
 There are   225 symmetry adapted basis functions of A   symmetry.
   225 basis functions,   424 primitive gaussians,   225 cartesian basis functions
    50 alpha electrons       50 beta electrons
       nuclear repulsion energy       899.6651789041 Hartrees.
 IExCor=  402 DFT=T Ex+Corr=B3LYP ExCW=0 ScaHFX=  0.200000
 ScaDFX=  0.800000  0.720000  1.000000  0.810000 ScalE2=  1.000000  1.000000
 IRadAn=      5 IRanWt=     -1 IRanGd=            0 ICorTp=0 IEmpDi=  4
 NAtoms=   28 NActive=   28 NUniq=   28 SFac= 1.00D+00 NAtFMM=   60 NAOKFM=F Big=F
 Integral buffers will be    131072 words long.
 Raffenetti 2 integral format.
 Two-electron integral symmetry is turned on.
 Using the following non-standard input for PCM:
 MSTModel=DFT cav
 --- end of non-standard input.
 MST model for solvation energy: B3LYP parametrization.
 MST cavity parameters:
 ISph   IAn     Re0     Alpha   Atom Type   QCorr
 ------------------------------------------------
   1      6     1.50     1.25      CH3        F
   2      8     1.40     1.25      O          F
   3      6     1.50     1.25      C          F
   4      8     1.40     1.25      O          F
   5      6     1.50     1.25      C          F
   6      6     1.50     1.25      CH3        F
   7      6     1.50     1.25      CH2        F
   8      6     1.50     1.25      CH2        F
   9      6     1.50     1.25      CH2        F
  10      7     1.40     1.25      N          F
  11      6     1.50     1.25      C          F
  12      6     1.50     1.25      CH3        F
  13      8     1.40     1.25      O          F
  14      1     1.20     1.25      CH3        F
  15      1     1.20     1.25      CH3        F
  16      1     1.20     1.25      CH3        F
  17      1     1.20     1.25      CH3        F
  18      1     1.20     1.25      CH3        F
  19      1     1.20     1.25      CH3        F
  20      1     1.20     1.25      CH2        F
  21      1     1.20     1.25      CH2        F
  22      1     1.20     1.25      CH2        F
  23      1     1.20     1.25      CH2        F
  24      1     1.20     1.25      CH2        F
  25      1     1.20     1.25      CH2        F
  26      1     1.20     1.25      CH3        F
  27      1     1.20     1.25      CH3        F
  28      1     1.20     1.25      CH3        F
 ------------------------------------------------------------------------------
 Polarizable Continuum Model (PCM)
 =================================
 Model                : PCM.
 Atomic radii         : MST.
 Polarization charges : Total charges.
 Charge compensation  : None.
 Solution method      : On-the-fly selection.
 Cavity type          : Scaled VdW (van der Waals Surface) (Alpha=1.250).
 Cavity algorithm     : GePol (No added spheres)
                        Default sphere list used, NSphG=   28.
                        Lebedev-Laikov grids with approx.  5.0 points / Ang**2.
                        Smoothing algorithm: York/Karplus (Gamma=1.0000).
                        Polarization charges: spherical gaussians, with
                                              point-specific exponents (IZeta= 3).
                        Self-potential: point-specific (ISelfS= 7).
                        Self-field    : sphere-specific E.n sum rule (ISelfD= 2).
 1st derivatives      : Analytical E(r).r(x)/FMM algorithm (CHGder, D1EAlg=3).
                        Cavity 1st derivative terms included.
 Solvent              : Water, Eps=  78.355300 Eps(inf)=   1.777849
 ------------------------------------------------------------------------------
 GePol: Number of generator spheres                  =      28
 GePol: Total number of spheres                      =      28
 GePol: Number of exposed spheres                    =      28 (100.00%)
 GePol: Number of points                             =    1859
 GePol: Average weight of points                     =       0.14
 GePol: Minimum weight of points                     =   0.15D-10
 GePol: Maximum weight of points                     =    0.22001
 GePol: Number of points with low weight             =     152
 GePol: Fraction of low-weight points (<1% of avg)   =       8.18%
 GePol: Cavity surface area                          =    256.477 Ang**2
 GePol: Cavity volume                                =    240.625 Ang**3
 Surface areas from nonelectrostatic (unscaled) cavity and vdw tensions:
 Sphere =    1 Type =  CH3 Surf =        5.446 Tension =       -0.140
 Sphere =    2 Type =  O   Surf =       10.352 Tension =       -0.117
 Sphere =    3 Type =  C   Surf =        5.983 Tension =       -0.101
 Sphere =    4 Type =  O   Surf =       15.888 Tension =       -0.117
 Sphere =    5 Type =  C   Surf =        2.012 Tension =       -0.101
 Sphere =    6 Type =  CH3 Surf =        4.766 Tension =       -0.140
 Sphere =    7 Type =  CH2 Surf =        3.923 Tension =       -0.139
 Sphere =    8 Type =  CH2 Surf =        4.185 Tension =       -0.139
 Sphere =    9 Type =  CH2 Surf =        4.418 Tension =       -0.139
 Sphere =   10 Type =  N   Surf =        4.224 Tension =       -0.105
 Sphere =   11 Type =  C   Surf =        7.037 Tension =       -0.101
 Sphere =   12 Type =  CH3 Surf =        5.047 Tension =       -0.140
 Sphere =   13 Type =  O   Surf =       15.806 Tension =       -0.117
 Sphere =   14 Type =  CH3 Surf =       10.124 Tension =       -0.140
 Sphere =   15 Type =  CH3 Surf =       10.163 Tension =       -0.140
 Sphere =   16 Type =  CH3 Surf =       10.165 Tension =       -0.140
 Sphere =   17 Type =  CH3 Surf =       10.116 Tension =       -0.140
 Sphere =   18 Type =  CH3 Surf =       10.032 Tension =       -0.140
 Sphere =   19 Type =  CH3 Surf =       10.043 Tension =       -0.140
 Sphere =   20 Type =  CH2 Surf =       10.001 Tension =       -0.139
 Sphere =   21 Type =  CH2 Surf =        9.714 Tension =       -0.139
 Sphere =   22 Type =  CH2 Surf =       10.073 Tension =       -0.139
 Sphere =   23 Type =  CH2 Surf =       10.127 Tension =       -0.139
 Sphere =   24 Type =  CH2 Surf =        9.444 Tension =       -0.139
 Sphere =   25 Type =  CH2 Surf =       10.166 Tension =       -0.139
 Sphere =   26 Type =  CH3 Surf =       10.061 Tension =       -0.140
 Sphere =   27 Type =  CH3 Surf =        9.923 Tension =       -0.140
 Sphere =   28 Type =  CH3 Surf =       10.154 Tension =       -0.140
 PCM non-electrostatic energy =         0.0037026534 Hartrees.
 Nuclear repulsion after PCM non-electrostatic terms =      899.6688815576 Hartrees.
 Leave Link  301 at Thu Mar 30 08:48:52 2023, MaxMem=   104857600 cpu:               0.2 elap:               0.1
 (Enter /dades/curu/g16A03_MST/g16/l302.exe)
 NPDir=0 NMtPBC=     1 NCelOv=     1 NCel=       1 NClECP=     1 NCelD=      1
         NCelK=      1 NCelE2=     1 NClLst=     1 CellRange=     0.0.
 One-electron integrals computed using PRISM.
 One-electron integral symmetry used in STVInt
 NBasis=   225 RedAO= T EigKep=  1.71D-03  NBF=   225
 NBsUse=   225 1.00D-06 EigRej= -1.00D+00 NBFU=   225
 Precomputing XC quadrature grid using
 IXCGrd= 4 IRadAn=           5 IRanWt=          -1 IRanGd=           0 AccXCQ= 0.00D+00.
 Generated NRdTot=       0 NPtTot=           0 NUsed=           0 NTot=          32
 NSgBfM=   225   224   225   225   225 MxSgAt=    28 MxSgA2=    28.
 Leave Link  302 at Thu Mar 30 08:48:53 2023, MaxMem=   104857600 cpu:               2.9 elap:               0.8
 (Enter /dades/curu/g16A03_MST/g16/l303.exe)
 DipDrv:  MaxL=1.
 Leave Link  303 at Thu Mar 30 08:48:53 2023, MaxMem=   104857600 cpu:               0.1 elap:               0.1
 (Enter /dades/curu/g16A03_MST/g16/l401.exe)
 ExpMin= 1.61D-01 ExpMax= 5.48D+03 ExpMxC= 8.25D+02 IAcc=3 IRadAn=         5 AccDes= 0.00D+00
 Harris functional with IExCor=  402 and IRadAn=       5 diagonalized for initial guess.
 HarFok:  IExCor=  402 AccDes= 0.00D+00 IRadAn=         5 IDoV= 1 UseB2=F ITyADJ=14
 ICtDFT=  3500011 ScaDFX=  1.000000  1.000000  1.000000  1.000000
 FoFCou: FMM=F IPFlag=           0 FMFlag=      100000 FMFlg1=           0
         NFxFlg=           0 DoJE=T BraDBF=F KetDBF=T FulRan=T
         wScrn=  0.000000 ICntrl=       500 IOpCl=  0 I1Cent=   200000004 NGrid=           0
         NMat0=    1 NMatS0=      1 NMatT0=    0 NMatD0=    1 NMtDS0=    0 NMtDT0=    0
 Petite list used in FoFCou.
 Harris En= -632.468085836586    
 JPrj=0 DoOrth=F DoCkMO=F.
 Leave Link  401 at Thu Mar 30 08:48:59 2023, MaxMem=   104857600 cpu:              24.3 elap:               6.1
 (Enter /dades/curu/g16A03_MST/g16/l502.exe)
 Integral symmetry usage will be decided dynamically.
 Closed shell SCF:
 Using DIIS extrapolation, IDIIS=  1040.
 NGot=   104857600 LenX=   104752303 LenY=   104701237
 Requested convergence on RMS density matrix=1.00D-08 within2000 cycles.
 Requested convergence on MAX density matrix=1.00D-06.
 Requested convergence on             energy=1.00D-06.
 No special actions if energy rises.

 Cycle   1  Pass 1  IDiag  1:
 FoFJK:  IHMeth= 1 ICntrl=       0 DoSepK=F KAlg= 0 I1Cent=           0 FoldK=F
 IRaf= 930000000 NMat=       1 IRICut=       1 DoRegI=T DoRafI=F ISym2E= 0 IDoP0=0 IntGTp=1.
 FoFCou: FMM=F IPFlag=           0 FMFlag=      100000 FMFlg1=           0
         NFxFlg=           0 DoJE=F BraDBF=F KetDBF=F FulRan=T
         wScrn=  0.000000 ICntrl=         0 IOpCl=  0 I1Cent=           0 NGrid=           0
         NMat0=    1 NMatS0=      1 NMatT0=    0 NMatD0=    1 NMtDS0=    0 NMtDT0=    0
 Symmetry not used in FoFCou.
 Inv3:  Mode=1 IEnd=    10367643.
 Iteration    1 A*A^-1 deviation from unit magnitude is 5.66D-15 for   1843.
 Iteration    1 A*A^-1 deviation from orthogonality  is 3.91D-15 for   1852    955.
 Iteration    1 A^-1*A deviation from unit magnitude is 5.66D-15 for   1843.
 Iteration    1 A^-1*A deviation from orthogonality  is 1.38D-11 for   1607   1599.
 E= -632.086882480535    
 DIIS: error= 3.09D-02 at cycle   1 NSaved=   1.
 NSaved= 1 IEnMin= 1 EnMin= -632.086882480535     IErMin= 1 ErrMin= 3.09D-02
 ErrMax= 3.09D-02  0.00D+00 EMaxC= 1.00D-01 BMatC= 4.14D-01 BMatP= 4.14D-01
 IDIUse=3 WtCom= 6.91D-01 WtEn= 3.09D-01
 Coeff-Com:  0.100D+01
 Coeff-En:   0.100D+01
 Coeff:      0.100D+01
 Gap=     0.226 Goal=   None    Shift=    0.000
 GapD=    0.226 DampG=1.000 DampE=0.500 DampFc=0.5000 IDamp=-1.
 Damping current iteration by 5.00D-01
 RMSDP=6.01D-03 MaxDP=1.85D-01              OVMax= 2.47D-01

 Cycle   2  Pass 1  IDiag  1:
 E= -632.208758885880     Delta-E=       -0.121876405345 Rises=F Damp=T
 DIIS: error= 1.01D-02 at cycle   2 NSaved=   2.
 NSaved= 2 IEnMin= 2 EnMin= -632.208758885880     IErMin= 2 ErrMin= 1.01D-02
 ErrMax= 1.01D-02  0.00D+00 EMaxC= 1.00D-01 BMatC= 5.34D-02 BMatP= 4.14D-01
 IDIUse=3 WtCom= 8.99D-01 WtEn= 1.01D-01
 Coeff-Com:  0.191D+00 0.809D+00
 Coeff-En:   0.286D+00 0.714D+00
 Coeff:      0.200D+00 0.800D+00
 Gap=     0.263 Goal=   None    Shift=    0.000
 RMSDP=1.75D-03 MaxDP=6.84D-02 DE=-1.22D-01 OVMax= 1.58D-01

 Cycle   3  Pass 1  IDiag  1:
 E= -632.412986107437     Delta-E=       -0.204227221557 Rises=F Damp=F
 DIIS: error= 9.19D-03 at cycle   3 NSaved=   3.
 NSaved= 3 IEnMin= 3 EnMin= -632.412986107437     IErMin= 3 ErrMin= 9.19D-03
 ErrMax= 9.19D-03  0.00D+00 EMaxC= 1.00D-01 BMatC= 4.72D-02 BMatP= 5.34D-02
 IDIUse=3 WtCom= 9.08D-01 WtEn= 9.19D-02
 Coeff-Com:  0.557D-01 0.480D+00 0.464D+00
 Coeff-En:   0.000D+00 0.000D+00 0.100D+01
 Coeff:      0.506D-01 0.436D+00 0.513D+00
 Gap=     0.255 Goal=   None    Shift=    0.000
 RMSDP=1.19D-03 MaxDP=3.61D-02 DE=-2.04D-01 OVMax= 7.10D-02

 Cycle   4  Pass 1  IDiag  1:
 E= -632.447341942951     Delta-E=       -0.034355835514 Rises=F Damp=F
 DIIS: error= 3.67D-03 at cycle   4 NSaved=   4.
 NSaved= 4 IEnMin= 4 EnMin= -632.447341942951     IErMin= 4 ErrMin= 3.67D-03
 ErrMax= 3.67D-03  0.00D+00 EMaxC= 1.00D-01 BMatC= 7.10D-03 BMatP= 4.72D-02
 IDIUse=3 WtCom= 9.63D-01 WtEn= 3.67D-02
 Coeff-Com:  0.683D-02 0.901D-01 0.292D+00 0.611D+00
 Coeff-En:   0.000D+00 0.000D+00 0.141D+00 0.859D+00
 Coeff:      0.658D-02 0.868D-01 0.287D+00 0.620D+00
 Gap=     0.246 Goal=   None    Shift=    0.000
 RMSDP=3.90D-04 MaxDP=1.45D-02 DE=-3.44D-02 OVMax= 2.65D-02

 Cycle   5  Pass 1  IDiag  1:
 E= -632.452739845417     Delta-E=       -0.005397902465 Rises=F Damp=F
 DIIS: error= 7.47D-04 at cycle   5 NSaved=   5.
 NSaved= 5 IEnMin= 5 EnMin= -632.452739845417     IErMin= 5 ErrMin= 7.47D-04
 ErrMax= 7.47D-04  0.00D+00 EMaxC= 1.00D-01 BMatC= 5.18D-04 BMatP= 7.10D-03
 IDIUse=3 WtCom= 9.93D-01 WtEn= 7.47D-03
 Coeff-Com:  0.439D-03 0.153D-01 0.122D+00 0.344D+00 0.518D+00
 Coeff-En:   0.000D+00 0.000D+00 0.000D+00 0.000D+00 0.100D+01
 Coeff:      0.436D-03 0.152D-01 0.122D+00 0.341D+00 0.521D+00
 Gap=     0.249 Goal=   None    Shift=    0.000
 RMSDP=9.48D-05 MaxDP=3.26D-03 DE=-5.40D-03 OVMax= 6.77D-03

 Cycle   6  Pass 1  IDiag  1:
 E= -632.453148930413     Delta-E=       -0.000409084996 Rises=F Damp=F
 DIIS: error= 1.90D-04 at cycle   6 NSaved=   6.
 NSaved= 6 IEnMin= 6 EnMin= -632.453148930413     IErMin= 6 ErrMin= 1.90D-04
 ErrMax= 1.90D-04  0.00D+00 EMaxC= 1.00D-01 BMatC= 3.01D-05 BMatP= 5.18D-04
 IDIUse=3 WtCom= 9.98D-01 WtEn= 1.90D-03
 Coeff-Com: -0.382D-03-0.135D-03 0.364D-01 0.118D+00 0.266D+00 0.580D+00
 Coeff-En:   0.000D+00 0.000D+00 0.000D+00 0.000D+00 0.000D+00 0.100D+01
 Coeff:     -0.381D-03-0.135D-03 0.364D-01 0.117D+00 0.266D+00 0.581D+00
 Gap=     0.248 Goal=   None    Shift=    0.000
 RMSDP=2.20D-05 MaxDP=8.48D-04 DE=-4.09D-04 OVMax= 1.09D-03

 Cycle   7  Pass 1  IDiag  1:
 E= -632.453170521863     Delta-E=       -0.000021591450 Rises=F Damp=F
 DIIS: error= 6.62D-05 at cycle   7 NSaved=   7.
 NSaved= 7 IEnMin= 7 EnMin= -632.453170521863     IErMin= 7 ErrMin= 6.62D-05
 ErrMax= 6.62D-05  0.00D+00 EMaxC= 1.00D-01 BMatC= 2.12D-06 BMatP= 3.01D-05
 IDIUse=1 WtCom= 1.00D+00 WtEn= 0.00D+00
 Coeff-Com: -0.178D-03-0.903D-03 0.114D-01 0.387D-01 0.110D+00 0.304D+00
 Coeff-Com:  0.537D+00
 Coeff:     -0.178D-03-0.903D-03 0.114D-01 0.387D-01 0.110D+00 0.304D+00
 Coeff:      0.537D+00
 Gap=     0.248 Goal=   None    Shift=    0.000
 RMSDP=6.92D-06 MaxDP=2.97D-04 DE=-2.16D-05 OVMax= 3.39D-04

 Cycle   8  Pass 1  IDiag  1:
 E= -632.453172084229     Delta-E=       -0.000001562367 Rises=F Damp=F
 DIIS: error= 3.07D-05 at cycle   8 NSaved=   8.
 NSaved= 8 IEnMin= 8 EnMin= -632.453172084229     IErMin= 8 ErrMin= 3.07D-05
 ErrMax= 3.07D-05  0.00D+00 EMaxC= 1.00D-01 BMatC= 2.73D-07 BMatP= 2.12D-06
 IDIUse=1 WtCom= 1.00D+00 WtEn= 0.00D+00
 Coeff-Com: -0.534D-04-0.508D-03 0.337D-02 0.115D-01 0.410D-01 0.123D+00
 Coeff-Com:  0.310D+00 0.511D+00
 Coeff:     -0.534D-04-0.508D-03 0.337D-02 0.115D-01 0.410D-01 0.123D+00
 Coeff:      0.310D+00 0.511D+00
 Gap=     0.248 Goal=   None    Shift=    0.000
 RMSDP=2.54D-06 MaxDP=9.59D-05 DE=-1.56D-06 OVMax= 1.45D-04

 Cycle   9  Pass 1  IDiag  1:
 E= -632.453172267050     Delta-E=       -0.000000182820 Rises=F Damp=F
 DIIS: error= 8.09D-06 at cycle   9 NSaved=   9.
 NSaved= 9 IEnMin= 9 EnMin= -632.453172267050     IErMin= 9 ErrMin= 8.09D-06
 ErrMax= 8.09D-06  0.00D+00 EMaxC= 1.00D-01 BMatC= 3.90D-08 BMatP= 2.73D-07
 IDIUse=1 WtCom= 1.00D+00 WtEn= 0.00D+00
 Coeff-Com:  0.379D-05-0.137D-03-0.519D-04-0.514D-03 0.409D-02 0.135D-01
 Coeff-Com:  0.754D-01 0.302D+00 0.606D+00
 Coeff:      0.379D-05-0.137D-03-0.519D-04-0.514D-03 0.409D-02 0.135D-01
 Coeff:      0.754D-01 0.302D+00 0.606D+00
 Gap=     0.248 Goal=   None    Shift=    0.000
 RMSDP=8.00D-07 MaxDP=2.92D-05 DE=-1.83D-07 OVMax= 4.50D-05

 Cycle  10  Pass 1  IDiag  1:
 E= -632.453172296282     Delta-E=       -0.000000029232 Rises=F Damp=F
 DIIS: error= 1.73D-06 at cycle  10 NSaved=  10.
 NSaved=10 IEnMin=10 EnMin= -632.453172296282     IErMin=10 ErrMin= 1.73D-06
 ErrMax= 1.73D-06  0.00D+00 EMaxC= 1.00D-01 BMatC= 1.13D-09 BMatP= 3.90D-08
 IDIUse=1 WtCom= 1.00D+00 WtEn= 0.00D+00
 Coeff-Com:  0.512D-05-0.350D-04-0.182D-03-0.803D-03-0.594D-04-0.369D-03
 Coeff-Com:  0.172D-01 0.105D+00 0.250D+00 0.630D+00
 Coeff:      0.512D-05-0.350D-04-0.182D-03-0.803D-03-0.594D-04-0.369D-03
 Coeff:      0.172D-01 0.105D+00 0.250D+00 0.630D+00
 Gap=     0.248 Goal=   None    Shift=    0.000
 RMSDP=2.09D-07 MaxDP=5.32D-06 DE=-2.92D-08 OVMax= 7.11D-06

 Cycle  11  Pass 1  IDiag  1:
 E= -632.453172297253     Delta-E=       -0.000000000971 Rises=F Damp=F
 DIIS: error= 4.59D-07 at cycle  11 NSaved=  11.
 NSaved=11 IEnMin=11 EnMin= -632.453172297253     IErMin=11 ErrMin= 4.59D-07
 ErrMax= 4.59D-07  0.00D+00 EMaxC= 1.00D-01 BMatC= 1.64D-10 BMatP= 1.13D-09
 IDIUse=1 WtCom= 1.00D+00 WtEn= 0.00D+00
 Coeff-Com:  0.167D-05-0.101D-05-0.825D-04-0.340D-03-0.454D-03-0.185D-02
 Coeff-Com: -0.796D-05 0.171D-01 0.509D-01 0.309D+00 0.626D+00
 Coeff:      0.167D-05-0.101D-05-0.825D-04-0.340D-03-0.454D-03-0.185D-02
 Coeff:     -0.796D-05 0.171D-01 0.509D-01 0.309D+00 0.626D+00
 Gap=     0.248 Goal=   None    Shift=    0.000
 RMSDP=6.40D-08 MaxDP=1.71D-06 DE=-9.71D-10 OVMax= 3.76D-06

 Cycle  12  Pass 1  IDiag  1:
 E= -632.453172297383     Delta-E=       -0.000000000131 Rises=F Damp=F
 DIIS: error= 1.71D-07 at cycle  12 NSaved=  12.
 NSaved=12 IEnMin=12 EnMin= -632.453172297383     IErMin=12 ErrMin= 1.71D-07
 ErrMax= 1.71D-07  0.00D+00 EMaxC= 1.00D-01 BMatC= 1.41D-11 BMatP= 1.64D-10
 IDIUse=1 WtCom= 1.00D+00 WtEn= 0.00D+00
 Coeff-Com:  0.379D-06 0.175D-05-0.300D-04-0.118D-03-0.233D-03-0.975D-03
 Coeff-Com: -0.143D-02 0.886D-04 0.571D-02 0.107D+00 0.313D+00 0.577D+00
 Coeff:      0.379D-06 0.175D-05-0.300D-04-0.118D-03-0.233D-03-0.975D-03
 Coeff:     -0.143D-02 0.886D-04 0.571D-02 0.107D+00 0.313D+00 0.577D+00
 Gap=     0.248 Goal=   None    Shift=    0.000
 RMSDP=1.88D-08 MaxDP=7.13D-07 DE=-1.31D-10 OVMax= 6.84D-07

 Cycle  13  Pass 1  IDiag  1:
 E= -632.453172297390     Delta-E=       -0.000000000007 Rises=F Damp=F
 DIIS: error= 4.50D-08 at cycle  13 NSaved=  13.
 NSaved=13 IEnMin=13 EnMin= -632.453172297390     IErMin=13 ErrMin= 4.50D-08
 ErrMax= 4.50D-08  0.00D+00 EMaxC= 1.00D-01 BMatC= 1.63D-12 BMatP= 1.41D-11
 IDIUse=1 WtCom= 1.00D+00 WtEn= 0.00D+00
 Coeff-Com: -0.527D-07 0.105D-05-0.903D-06-0.453D-05-0.303D-04-0.174D-03
 Coeff-Com: -0.578D-03-0.229D-02-0.441D-02 0.638D-02 0.651D-01 0.291D+00
 Coeff-Com:  0.645D+00
 Coeff:     -0.527D-07 0.105D-05-0.903D-06-0.453D-05-0.303D-04-0.174D-03
 Coeff:     -0.578D-03-0.229D-02-0.441D-02 0.638D-02 0.651D-01 0.291D+00
 Coeff:      0.645D+00
 Gap=     0.248 Goal=   None    Shift=    0.000
 RMSDP=5.83D-09 MaxDP=2.25D-07 DE=-7.05D-12 OVMax= 3.20D-07

 Error on total polarization charges =  0.01452
 SCF Done:  E(RB3LYP) =  -632.453172297     A.U. after   13 cycles
            NFock= 13  Conv=0.58D-08     -V/T= 2.0094
 KE= 6.265679258506D+02 PE=-3.274056225876D+03 EE= 1.115366246171D+03
 Leave Link  502 at Thu Mar 30 08:51:30 2023, MaxMem=   104857600 cpu:             589.8 elap:             150.4
 (Enter /dades/curu/g16A03_MST/g16/l601.exe)
 Copying SCF densities to generalized density rwf, IOpCl= 0 IROHF=0.

 **********************************************************************

            Population analysis using the SCF density.

 **********************************************************************

 Orbital symmetries:
       Occupied  (A) (A) (A) (A) (A) (A) (A) (A) (A) (A) (A) (A)
                 (A) (A) (A) (A) (A) (A) (A) (A) (A) (A) (A) (A)
                 (A) (A) (A) (A) (A) (A) (A) (A) (A) (A) (A) (A)
                 (A) (A) (A) (A) (A) (A) (A) (A) (A) (A) (A) (A)
                 (A) (A)
       Virtual   (A) (A) (A) (A) (A) (A) (A) (A) (A) (A) (A) (A)
                 (A) (A) (A) (A) (A) (A) (A) (A) (A) (A) (A) (A)
                 (A) (A) (A) (A) (A) (A) (A) (A) (A) (A) (A) (A)
                 (A) (A) (A) (A) (A) (A) (A) (A) (A) (A) (A) (A)
                 (A) (A) (A) (A) (A) (A) (A) (A) (A) (A) (A) (A)
                 (A) (A) (A) (A) (A) (A) (A) (A) (A) (A) (A) (A)
                 (A) (A) (A) (A) (A) (A) (A) (A) (A) (A) (A) (A)
                 (A) (A) (A) (A) (A) (A) (A) (A) (A) (A) (A) (A)
                 (A) (A) (A) (A) (A) (A) (A) (A) (A) (A) (A) (A)
                 (A) (A) (A) (A) (A) (A) (A) (A) (A) (A) (A) (A)
                 (A) (A) (A) (A) (A) (A) (A) (A) (A) (A) (A) (A)
                 (A) (A) (A) (A) (A) (A) (A) (A) (A) (A) (A) (A)
                 (A) (A) (A) (A) (A) (A) (A) (A) (A) (A) (A) (A)
                 (A) (A) (A) (A) (A) (A) (A) (A) (A) (A) (A) (A)
                 (A) (A) (A) (A) (A) (A) (A)
 The electronic state is 1-A.
 Alpha  occ. eigenvalues --  -19.19723 -19.14106 -19.11494 -14.36494 -10.31953
 Alpha  occ. eigenvalues --  -10.28924 -10.24644 -10.23749 -10.22213 -10.19402
 Alpha  occ. eigenvalues --  -10.18842 -10.18627 -10.17641  -1.10607  -1.02948
 Alpha  occ. eigenvalues --   -1.01595  -0.94370  -0.80698  -0.77736  -0.73098
 Alpha  occ. eigenvalues --   -0.72818  -0.68040  -0.63362  -0.60560  -0.58089
 Alpha  occ. eigenvalues --   -0.54488  -0.50605  -0.49165  -0.47892  -0.47621
 Alpha  occ. eigenvalues --   -0.46468  -0.44531  -0.43807  -0.42911  -0.42172
 Alpha  occ. eigenvalues --   -0.41276  -0.40910  -0.39038  -0.38545  -0.38365
 Alpha  occ. eigenvalues --   -0.37565  -0.35896  -0.35174  -0.34857  -0.33700
 Alpha  occ. eigenvalues --   -0.33352  -0.30618  -0.28401  -0.25429  -0.24184
 Alpha virt. eigenvalues --    0.00651   0.02144   0.08233   0.10705   0.11527
 Alpha virt. eigenvalues --    0.12019   0.12933   0.13250   0.13888   0.15768
 Alpha virt. eigenvalues --    0.15926   0.16534   0.17202   0.17281   0.17400
 Alpha virt. eigenvalues --    0.17866   0.18987   0.19675   0.20969   0.21493
 Alpha virt. eigenvalues --    0.22787   0.23980   0.25072   0.25554   0.29130
 Alpha virt. eigenvalues --    0.29698   0.33302   0.35788   0.37761   0.39593
 Alpha virt. eigenvalues --    0.48246   0.50055   0.50827   0.51112   0.53386
 Alpha virt. eigenvalues --    0.54549   0.54635   0.55367   0.57078   0.58047
 Alpha virt. eigenvalues --    0.59828   0.60992   0.62443   0.62985   0.63674
 Alpha virt. eigenvalues --    0.64640   0.66385   0.68169   0.70818   0.70922
 Alpha virt. eigenvalues --    0.72201   0.74932   0.75740   0.77901   0.79546
 Alpha virt. eigenvalues --    0.80875   0.83515   0.83583   0.84492   0.85830
 Alpha virt. eigenvalues --    0.86076   0.86246   0.87683   0.88375   0.89192
 Alpha virt. eigenvalues --    0.89624   0.90843   0.91357   0.92543   0.93073
 Alpha virt. eigenvalues --    0.93704   0.94624   0.95074   0.98296   0.99811
 Alpha virt. eigenvalues --    1.00702   1.01498   1.03986   1.05384   1.07822
 Alpha virt. eigenvalues --    1.09762   1.13548   1.15830   1.18988   1.22310
 Alpha virt. eigenvalues --    1.24687   1.29609   1.30709   1.32284   1.36611
 Alpha virt. eigenvalues --    1.38951   1.42245   1.43409   1.46184   1.48001
 Alpha virt. eigenvalues --    1.52655   1.52877   1.59734   1.60875   1.63907
 Alpha virt. eigenvalues --    1.66351   1.69890   1.71164   1.75586   1.78166
 Alpha virt. eigenvalues --    1.79281   1.79892   1.80628   1.82887   1.83946
 Alpha virt. eigenvalues --    1.85560   1.87557   1.88807   1.89471   1.92026
 Alpha virt. eigenvalues --    1.93543   1.96222   1.97261   2.00067   2.01306
 Alpha virt. eigenvalues --    2.03104   2.03378   2.04728   2.06322   2.08291
 Alpha virt. eigenvalues --    2.10102   2.11523   2.12146   2.15127   2.16715
 Alpha virt. eigenvalues --    2.21455   2.22237   2.22847   2.26714   2.28277
 Alpha virt. eigenvalues --    2.29088   2.30244   2.31499   2.34491   2.37178
 Alpha virt. eigenvalues --    2.39728   2.42237   2.46491   2.50187   2.52104
 Alpha virt. eigenvalues --    2.53157   2.55624   2.60237   2.61728   2.63892
 Alpha virt. eigenvalues --    2.67808   2.69557   2.71335   2.78623   2.82865
 Alpha virt. eigenvalues --    2.86646   2.94065   2.96653   3.00196   3.03621
 Alpha virt. eigenvalues --    3.15583   3.21150   3.96084   4.00295   4.11343
 Alpha virt. eigenvalues --    4.19578   4.22190   4.24594   4.30984   4.32302
 Alpha virt. eigenvalues --    4.38668   4.51766   4.55436   4.60978   4.80226
          Condensed to atoms (all electrons):
               1          2          3          4          5          6
     1  C    4.905323   0.205208  -0.022119   0.004097   0.007288  -0.000185
     2  O    0.205208   8.251235   0.261985  -0.081153  -0.095197   0.003339
     3  C   -0.022119   0.261985   4.347256   0.528675   0.342823  -0.053554
     4  O    0.004097  -0.081153   0.528675   8.145553  -0.071433   0.003983
     5  C    0.007288  -0.095197   0.342823  -0.071433   4.944831   0.377952
     6  C   -0.000185   0.003339  -0.053554   0.003983   0.377952   5.152876
     7  C   -0.000277   0.002265  -0.032552  -0.001556   0.354703  -0.049070
     8  C    0.000035  -0.001229  -0.003171   0.000111  -0.046797   0.003873
     9  C    0.000017  -0.000003   0.001467  -0.000091  -0.057704   0.004277
    10  N   -0.000202  -0.000218  -0.051143   0.002289   0.254969  -0.060277
    11  C   -0.000247   0.007141  -0.004111  -0.000688  -0.037378  -0.002128
    12  C    0.000008  -0.000173  -0.000338  -0.000014   0.007200  -0.000194
    13  O   -0.000075  -0.003567   0.019599  -0.002465   0.003997  -0.007022
    14  H    0.380527  -0.030963   0.004383   0.000736   0.000005   0.000001
    15  H    0.373145  -0.030814  -0.005001   0.005936   0.000000  -0.000008
    16  H    0.373333  -0.031053  -0.004062   0.005081  -0.000137   0.000012
    17  H   -0.000008   0.000052  -0.002506   0.004069  -0.026185   0.361379
    18  H   -0.000011   0.000030  -0.004857   0.001556  -0.024600   0.363452
    19  H    0.000002  -0.000036   0.005060   0.000473  -0.027891   0.362650
    20  H   -0.000143   0.000320  -0.002162   0.000668  -0.032612   0.002170
    21  H    0.000009   0.000023   0.003847  -0.000080  -0.035491  -0.006469
    22  H   -0.000026   0.005889   0.001368   0.000030  -0.002281   0.000034
    23  H   -0.000003   0.000081  -0.000043   0.000000   0.003985  -0.000085
    24  H   -0.000002  -0.000022   0.000105   0.000001   0.003644  -0.000195
    25  H   -0.000000   0.000004  -0.000036   0.000002   0.001138   0.000501
    26  H   -0.000000   0.000002  -0.000000   0.000000  -0.000130   0.000010
    27  H   -0.000003   0.000115   0.000002   0.000000  -0.000173  -0.000004
    28  H   -0.000000  -0.000001   0.000015   0.000000  -0.000152   0.000007
               7          8          9         10         11         12
     1  C   -0.000277   0.000035   0.000017  -0.000202  -0.000247   0.000008
     2  O    0.002265  -0.001229  -0.000003  -0.000218   0.007141  -0.000173
     3  C   -0.032552  -0.003171   0.001467  -0.051143  -0.004111  -0.000338
     4  O   -0.001556   0.000111  -0.000091   0.002289  -0.000688  -0.000014
     5  C    0.354703  -0.046797  -0.057704   0.254969  -0.037378   0.007200
     6  C   -0.049070   0.003873   0.004277  -0.060277  -0.002128  -0.000194
     7  C    5.125801   0.356726  -0.062898  -0.055411   0.006721  -0.000258
     8  C    0.356726   5.038311   0.366507  -0.054396   0.002913  -0.000137
     9  C   -0.062898   0.366507   4.936766   0.268735  -0.025159  -0.001869
    10  N   -0.055411  -0.054396   0.268735   7.111304   0.302981  -0.115171
    11  C    0.006721   0.002913  -0.025159   0.302981   4.314466   0.361725
    12  C   -0.000258  -0.000137  -0.001869  -0.115171   0.361725   5.307184
    13  O    0.000644  -0.000177   0.002987  -0.097065   0.548458  -0.078812
    14  H   -0.000008   0.000006   0.000003   0.000003  -0.000019  -0.000001
    15  H   -0.000065   0.000013  -0.000000  -0.000023   0.000028   0.000000
    16  H    0.000017  -0.000004   0.000001  -0.000053  -0.000057   0.000002
    17  H   -0.003063   0.000075  -0.000142   0.004303   0.000191   0.000007
    18  H    0.004803  -0.000203  -0.000153  -0.007142   0.003204   0.000181
    19  H   -0.005819  -0.000119   0.000741  -0.001179  -0.000050  -0.000029
    20  H    0.368373  -0.024507   0.004667   0.003613  -0.000004   0.000005
    21  H    0.372919  -0.035652   0.001543  -0.001415  -0.000269   0.000003
    22  H   -0.034577   0.375104  -0.033824   0.000164  -0.000017  -0.000018
    23  H   -0.027932   0.369072  -0.029281   0.003951  -0.000047   0.000008
    24  H    0.004653  -0.023060   0.377230  -0.034840  -0.006912   0.004257
    25  H   -0.002830  -0.039522   0.378488  -0.046039  -0.000918   0.000075
    26  H    0.000003  -0.000009   0.000276   0.004810  -0.022076   0.354581
    27  H    0.000002   0.000061  -0.001443   0.000048  -0.020024   0.356056
    28  H   -0.000016   0.000161   0.000335   0.001760  -0.020120   0.352047
              13         14         15         16         17         18
     1  C   -0.000075   0.380527   0.373145   0.373333  -0.000008  -0.000011
     2  O   -0.003567  -0.030963  -0.030814  -0.031053   0.000052   0.000030
     3  C    0.019599   0.004383  -0.005001  -0.004062  -0.002506  -0.004857
     4  O   -0.002465   0.000736   0.005936   0.005081   0.004069   0.001556
     5  C    0.003997   0.000005   0.000000  -0.000137  -0.026185  -0.024600
     6  C   -0.007022   0.000001  -0.000008   0.000012   0.361379   0.363452
     7  C    0.000644  -0.000008  -0.000065   0.000017  -0.003063   0.004803
     8  C   -0.000177   0.000006   0.000013  -0.000004   0.000075  -0.000203
     9  C    0.002987   0.000003  -0.000000   0.000001  -0.000142  -0.000153
    10  N   -0.097065   0.000003  -0.000023  -0.000053   0.004303  -0.007142
    11  C    0.548458  -0.000019   0.000028  -0.000057   0.000191   0.003204
    12  C   -0.078812  -0.000001   0.000000   0.000002   0.000007   0.000181
    13  O    8.195621  -0.000011   0.000003   0.000451   0.000158   0.011754
    14  H   -0.000011   0.521743  -0.029438  -0.029225  -0.000000  -0.000000
    15  H    0.000003  -0.029438   0.544165  -0.035472   0.000002  -0.000001
    16  H    0.000451  -0.029225  -0.035472   0.542964  -0.000001  -0.000000
    17  H    0.000158  -0.000000   0.000002  -0.000001   0.552349  -0.026326
    18  H    0.011754  -0.000000  -0.000001  -0.000000  -0.026326   0.541205
    19  H   -0.000052  -0.000000  -0.000000   0.000000  -0.026610  -0.027373
    20  H    0.000006  -0.000003   0.000056  -0.000002   0.000913  -0.000165
    21  H   -0.000004  -0.000000  -0.000002   0.000000   0.000138   0.000262
    22  H   -0.000006  -0.000009  -0.000016   0.000017  -0.000009   0.000008
    23  H    0.000001  -0.000000   0.000000   0.000000  -0.000003   0.000004
    24  H    0.000094  -0.000001   0.000000   0.000000   0.000004  -0.000005
    25  H   -0.000043   0.000000  -0.000000  -0.000000  -0.000037   0.000046
    26  H    0.004775   0.000000  -0.000000  -0.000000  -0.000000   0.000001
    27  H    0.000740   0.000000   0.000000  -0.000001   0.000000  -0.000001
    28  H    0.002058   0.000000  -0.000000   0.000000  -0.000000  -0.000024
              19         20         21         22         23         24
     1  C    0.000002  -0.000143   0.000009  -0.000026  -0.000003  -0.000002
     2  O   -0.000036   0.000320   0.000023   0.005889   0.000081  -0.000022
     3  C    0.005060  -0.002162   0.003847   0.001368  -0.000043   0.000105
     4  O    0.000473   0.000668  -0.000080   0.000030   0.000000   0.000001
     5  C   -0.027891  -0.032612  -0.035491  -0.002281   0.003985   0.003644
     6  C    0.362650   0.002170  -0.006469   0.000034  -0.000085  -0.000195
     7  C   -0.005819   0.368373   0.372919  -0.034577  -0.027932   0.004653
     8  C   -0.000119  -0.024507  -0.035652   0.375104   0.369072  -0.023060
     9  C    0.000741   0.004667   0.001543  -0.033824  -0.029281   0.377230
    10  N   -0.001179   0.003613  -0.001415   0.000164   0.003951  -0.034840
    11  C   -0.000050  -0.000004  -0.000269  -0.000017  -0.000047  -0.006912
    12  C   -0.000029   0.000005   0.000003  -0.000018   0.000008   0.004257
    13  O   -0.000052   0.000006  -0.000004  -0.000006   0.000001   0.000094
    14  H   -0.000000  -0.000003  -0.000000  -0.000009  -0.000000  -0.000001
    15  H   -0.000000   0.000056  -0.000002  -0.000016   0.000000   0.000000
    16  H    0.000000  -0.000002   0.000000   0.000017   0.000000   0.000000
    17  H   -0.026610   0.000913   0.000138  -0.000009  -0.000003   0.000004
    18  H   -0.027373  -0.000165   0.000262   0.000008   0.000004  -0.000005
    19  H    0.559705   0.000023   0.004446  -0.000002  -0.000025  -0.000002
    20  H    0.000023   0.541248  -0.030476  -0.005779   0.000742  -0.000136
    21  H    0.004446  -0.030476   0.556241   0.004694  -0.005958  -0.000072
    22  H   -0.000002  -0.005779   0.004694   0.556332  -0.029819  -0.006771
    23  H   -0.000025   0.000742  -0.005958  -0.029819   0.555011   0.001136
    24  H   -0.000002  -0.000136  -0.000072  -0.006771   0.001136   0.541292
    25  H    0.000143  -0.000087   0.001848   0.004822  -0.003377  -0.040543
    26  H   -0.000000  -0.000000  -0.000000  -0.000000   0.000000   0.000066
    27  H    0.000000  -0.000000   0.000000   0.000005  -0.000003   0.003052
    28  H    0.000002  -0.000000   0.000000   0.000004  -0.000001  -0.001502
              25         26         27         28
     1  C   -0.000000  -0.000000  -0.000003  -0.000000
     2  O    0.000004   0.000002   0.000115  -0.000001
     3  C   -0.000036  -0.000000   0.000002   0.000015
     4  O    0.000002   0.000000   0.000000   0.000000
     5  C    0.001138  -0.000130  -0.000173  -0.000152
     6  C    0.000501   0.000010  -0.000004   0.000007
     7  C   -0.002830   0.000003   0.000002  -0.000016
     8  C   -0.039522  -0.000009   0.000061   0.000161
     9  C    0.378488   0.000276  -0.001443   0.000335
    10  N   -0.046039   0.004810   0.000048   0.001760
    11  C   -0.000918  -0.022076  -0.020024  -0.020120
    12  C    0.000075   0.354581   0.356056   0.352047
    13  O   -0.000043   0.004775   0.000740   0.002058
    14  H    0.000000   0.000000   0.000000   0.000000
    15  H   -0.000000  -0.000000   0.000000  -0.000000
    16  H   -0.000000  -0.000000  -0.000001   0.000000
    17  H   -0.000037  -0.000000   0.000000  -0.000000
    18  H    0.000046   0.000001  -0.000001  -0.000024
    19  H    0.000143  -0.000000   0.000000   0.000002
    20  H   -0.000087  -0.000000  -0.000000  -0.000000
    21  H    0.001848  -0.000000   0.000000   0.000000
    22  H    0.004822  -0.000000   0.000005   0.000004
    23  H   -0.003377   0.000000  -0.000003  -0.000001
    24  H   -0.040543   0.000066   0.003052  -0.001502
    25  H    0.576876   0.000008  -0.000138   0.001027
    26  H    0.000008   0.522483  -0.020767  -0.021907
    27  H   -0.000138  -0.020767   0.514730  -0.025853
    28  H    0.001027  -0.021907  -0.025853   0.526254
 Mulliken charges:
               1
     1  C   -0.225689
     2  O   -0.463261
     3  C    0.669068
     4  O   -0.545782
     5  C    0.155626
     6  C   -0.457326
     7  C   -0.321300
     8  C   -0.283986
     9  C   -0.131475
    10  N   -0.434353
    11  C    0.592398
    12  C   -0.546326
    13  O   -0.602047
    14  H    0.182270
    15  H    0.177490
    16  H    0.178189
    17  H    0.161250
    18  H    0.164352
    19  H    0.155944
    20  H    0.173272
    21  H    0.169916
    22  H    0.164684
    23  H    0.162587
    24  H    0.178530
    25  H    0.168591
    26  H    0.177874
    27  H    0.193596
    28  H    0.185907
 Sum of Mulliken charges =  -0.00000
 Mulliken charges with hydrogens summed into heavy atoms:
               1
     1  C    0.312260
     2  O   -0.463261
     3  C    0.669068
     4  O   -0.545782
     5  C    0.155626
     6  C    0.024220
     7  C    0.021887
     8  C    0.043285
     9  C    0.215646
    10  N   -0.434353
    11  C    0.592398
    12  C    0.011052
    13  O   -0.602047
 Electronic spatial extent (au):  <R**2>=           2197.4867
 Charge=             -0.0000 electrons
 Dipole moment (field-independent basis, Debye):
    X=              3.3863    Y=              4.0161    Z=             -5.0158  Tot=              7.2632
 Quadrupole moment (field-independent basis, Debye-Ang):
   XX=            -71.4916   YY=            -76.3076   ZZ=            -77.0458
   XY=              1.5730   XZ=              5.3342   YZ=              6.5399
 Traceless Quadrupole moment (field-independent basis, Debye-Ang):
   XX=              3.4567   YY=             -1.3593   ZZ=             -2.0975
   XY=              1.5730   XZ=              5.3342   YZ=              6.5399
 Octapole moment (field-independent basis, Debye-Ang**2):
  XXX=             11.8598  YYY=             10.8614  ZZZ=            -12.0337  XYY=             -3.7501
  XXY=            -10.8286  XXZ=            -27.3550  XZZ=             -1.8351  YZZ=              0.0573
  YYZ=            -12.9430  XYZ=             -4.5525
 Hexadecapole moment (field-independent basis, Debye-Ang**3):
 XXXX=          -1220.9325 YYYY=           -924.2961 ZZZZ=           -633.7570 XXXY=              6.0719
 XXXZ=             58.5833 YYYX=             15.4655 YYYZ=             15.4639 ZZZX=             14.5104
 ZZZY=             12.7099 XXYY=           -330.0157 XXZZ=           -309.8109 YYZZ=           -260.4156
 XXYZ=             15.7822 YYXZ=              0.2513 ZZXY=             11.2671
 N-N= 8.996688815576D+02 E-N=-3.274056223035D+03  KE= 6.265679258506D+02
 No NMR shielding tensors so no spin-rotation constants.
 Leave Link  601 at Thu Mar 30 08:51:30 2023, MaxMem=   104857600 cpu:               0.5 elap:               0.2
 (Enter /dades/curu/g16A03_MST/g16/l701.exe)
 ... and contract with generalized density number  0.
 Compute integral first derivatives.
 D1PCM: PCM CHGder 1st derivatives, ID1Alg=3 FixD1E=F DoIter=F DoCFld=F I1PDM=0.
 GePol: Maximum number of non-zero 1st derivatives   =     154
 Leave Link  701 at Thu Mar 30 08:51:32 2023, MaxMem=   104857600 cpu:               9.2 elap:               2.4
 (Enter /dades/curu/g16A03_MST/g16/l702.exe)
 L702 exits ... SP integral derivatives will be done elsewhere.
 Leave Link  702 at Thu Mar 30 08:51:32 2023, MaxMem=   104857600 cpu:               0.1 elap:               0.1
 (Enter /dades/curu/g16A03_MST/g16/l703.exe)
 Integral derivatives from FoFJK, PRISM(SPDF).
 Compute integral first derivatives, UseDBF=F ICtDFT=           0.
 Calling FoFJK, ICntrl=      2127 FMM=F ISym2X=0 I1Cent= 0 IOpClX= 0 NMat=1 NMatS=1 NMatT=0.
 FoFJK:  IHMeth= 1 ICntrl=    2127 DoSepK=F KAlg= 0 I1Cent=           0 FoldK=F
 IRaf=         0 NMat=       1 IRICut=       1 DoRegI=T DoRafI=F ISym2E= 0 IDoP0=0 IntGTp=1.
 FoFCou: FMM=F IPFlag=           0 FMFlag=      100000 FMFlg1=         800
         NFxFlg=           0 DoJE=F BraDBF=F KetDBF=F FulRan=T
         wScrn=  0.000000 ICntrl=      2127 IOpCl=  0 I1Cent=           0 NGrid=           0
         NMat0=    1 NMatS0=      1 NMatT0=    0 NMatD0=    1 NMtDS0=    0 NMtDT0=    0
 Symmetry not used in FoFCou.
 Leave Link  703 at Thu Mar 30 08:51:57 2023, MaxMem=   104857600 cpu:              97.7 elap:              24.5
 (Enter /dades/curu/g16A03_MST/g16/l716.exe)
 Dipole        = 1.33229103D+00 1.58005630D+00-1.97337249D+00
 ***** Axes restored to original set *****
 -------------------------------------------------------------------
 Center     Atomic                   Forces (Hartrees/Bohr)
 Number     Number              X              Y              Z
 -------------------------------------------------------------------
      1        6          -0.000400873    0.001823306    0.000889840
      2        8           0.000713759   -0.000594217   -0.000699856
      3        6          -0.000177269   -0.005024990   -0.001300692
      4        8           0.001371096    0.003991483    0.001376097
      5        6           0.001703113   -0.000170322    0.000815411
      6        6          -0.002189668   -0.000534264    0.000891097
      7        6          -0.000557038    0.000183856   -0.001109846
      8        6          -0.000110317    0.001422534   -0.000136709
      9        6          -0.000707447   -0.000455804    0.000825384
     10        7          -0.000173529    0.001495790   -0.002060107
     11        6           0.000034640   -0.010899742    0.001454040
     12        6           0.000159994    0.002439911   -0.000570366
     13        8          -0.001148919    0.008682893   -0.000926643
     14        1          -0.001781017   -0.001041410   -0.000031439
     15        1          -0.000001696   -0.000254261    0.001081984
     16        1          -0.000402517    0.000845789   -0.000913615
     17        1           0.000703085    0.000337028    0.000897048
     18        1           0.001153655    0.001542599   -0.000818421
     19        1           0.001328274   -0.000572467   -0.000679771
     20        1          -0.000288206    0.000446122    0.001062851
     21        1           0.000673014   -0.000443525    0.000085174
     22        1          -0.000801720   -0.000080146    0.000213012
     23        1           0.000626555   -0.001257575    0.000282317
     24        1          -0.000354136   -0.000892282    0.000629530
     25        1           0.000948528   -0.000313152   -0.000386890
     26        1          -0.000269071    0.000808694   -0.001242841
     27        1          -0.001396204   -0.000251182    0.000674406
     28        1           0.001343916   -0.001234665   -0.000300997
 -------------------------------------------------------------------
 Cartesian Forces:  Max     0.010899742 RMS     0.001918263
 Leave Link  716 at Thu Mar 30 08:51:57 2023, MaxMem=   104857600 cpu:               0.1 elap:               0.1
 (Enter /dades/curu/g16A03_MST/g16/l103.exe)

 GradGradGradGradGradGradGradGradGradGradGradGradGradGradGradGradGradGrad
 Berny optimization.
 FormGI is forming the generalized inverse of G from B-inverse, IUseBI=4.
 Internal  Forces:  Max     0.008707650 RMS     0.001122351
 Search for a local minimum.
 Step number   1 out of a maximum of  168
 All quantities printed in internal units (Hartrees-Bohrs-Radians)
 RMS Force = .11224D-02 SwitMx=.10000D-02 MixMth= 1
 Mixed Optimization -- RFO/linear search
 Second derivative matrix not updated -- first step.
 ITU=  0
     Eigenvalues ---    0.00269   0.00342   0.00408   0.00592   0.00616
     Eigenvalues ---    0.00827   0.01051   0.01088   0.01272   0.02294
     Eigenvalues ---    0.02453   0.02619   0.03082   0.04540   0.04898
     Eigenvalues ---    0.05084   0.05505   0.05571   0.05627   0.05752
     Eigenvalues ---    0.06055   0.06540   0.06819   0.07116   0.07156
     Eigenvalues ---    0.07442   0.07700   0.08230   0.09436   0.10146
     Eigenvalues ---    0.10533   0.10656   0.12931   0.16000   0.16000
     Eigenvalues ---    0.16000   0.16000   0.16000   0.16000   0.16000
     Eigenvalues ---    0.16000   0.16000   0.17865   0.21394   0.24381
     Eigenvalues ---    0.24954   0.24999   0.25000   0.25000   0.25000
     Eigenvalues ---    0.25348   0.27898   0.28157   0.28734   0.29235
     Eigenvalues ---    0.31033   0.33090   0.33864   0.33879   0.33972
     Eigenvalues ---    0.34222   0.34229   0.34232   0.34334   0.34342
     Eigenvalues ---    0.34362   0.34389   0.34524   0.34558   0.34559
     Eigenvalues ---    0.34673   0.34731   0.34735   0.38819   0.54083
     Eigenvalues ---    0.56653   0.84288   0.95789
 RFO step:  Lambda=-6.08228534D-04 EMin= 2.68729735D-03
 Linear search not attempted -- first point.
 Iteration  1 RMS(Cart)=  0.02612066 RMS(Int)=  0.00024406
 Iteration  2 RMS(Cart)=  0.00038783 RMS(Int)=  0.00002365
 Iteration  3 RMS(Cart)=  0.00000009 RMS(Int)=  0.00002365
 ITry= 1 IFail=0 DXMaxC= 1.21D-01 DCOld= 1.00D+10 DXMaxT= 1.00D-01 DXLimC= 3.00D+00 Rises=F
 Variable       Old X    -DE/DX   Delta X   Delta X   Delta X     New X
                                 (Linear)    (Quad)   (Total)
    R1        2.73191  -0.00302   0.00000  -0.00777  -0.00777   2.72414
    R2        2.06107  -0.00206   0.00000  -0.00592  -0.00592   2.05514
    R3        2.06399  -0.00098   0.00000  -0.00282  -0.00282   2.06117
    R4        2.06396  -0.00122   0.00000  -0.00353  -0.00353   2.06043
    R5        2.53692  -0.00148   0.00000  -0.00261  -0.00261   2.53431
    R6        2.30374  -0.00443   0.00000  -0.00462  -0.00462   2.29912
    R7        2.90562  -0.00042   0.00000  -0.00144  -0.00144   2.90418
    R8        2.89515  -0.00115   0.00000  -0.00392  -0.00392   2.89123
    R9        2.94849   0.00017   0.00000   0.00030   0.00028   2.94877
   R10        2.80096  -0.00261   0.00000  -0.00771  -0.00773   2.79323
   R11        2.06769  -0.00116   0.00000  -0.00337  -0.00337   2.06433
   R12        2.06454  -0.00153   0.00000  -0.00443  -0.00443   2.06012
   R13        2.06957  -0.00149   0.00000  -0.00435  -0.00435   2.06521
   R14        2.89791   0.00032   0.00000   0.00151   0.00151   2.89942
   R15        2.06724  -0.00118   0.00000  -0.00343  -0.00343   2.06380
   R16        2.06941  -0.00077   0.00000  -0.00224  -0.00224   2.06717
   R17        2.89139  -0.00001   0.00000  -0.00029  -0.00026   2.89113
   R18        2.06679  -0.00081   0.00000  -0.00234  -0.00234   2.06444
   R19        2.06756  -0.00141   0.00000  -0.00410  -0.00410   2.06346
   R20        2.78787  -0.00210   0.00000  -0.00573  -0.00572   2.78215
   R21        2.06113  -0.00034   0.00000  -0.00098  -0.00098   2.06015
   R22        2.07535  -0.00105   0.00000  -0.00309  -0.00309   2.07226
   R23        2.55956  -0.00098   0.00000  -0.00182  -0.00182   2.55775
   R24        2.85950  -0.00021   0.00000  -0.00069  -0.00069   2.85881
   R25        2.35683  -0.00871   0.00000  -0.01032  -0.01032   2.34651
   R26        2.06210  -0.00150   0.00000  -0.00432  -0.00432   2.05777
   R27        2.07378  -0.00150   0.00000  -0.00440  -0.00440   2.06938
   R28        2.06945  -0.00182   0.00000  -0.00529  -0.00529   2.06415
[...]
 The electronic state is 1-A.
 Alpha  occ. eigenvalues --  -19.19646 -19.14106 -19.11485 -14.36346 -10.31857
 Alpha  occ. eigenvalues --  -10.28831 -10.24540 -10.23612 -10.22231 -10.19450
 Alpha  occ. eigenvalues --  -10.18864 -10.18566 -10.17449  -1.10715  -1.03216
 Alpha  occ. eigenvalues --   -1.01716  -0.94502  -0.80702  -0.77818  -0.73146
 Alpha  occ. eigenvalues --   -0.72819  -0.68077  -0.63350  -0.60639  -0.58140
 Alpha  occ. eigenvalues --   -0.54524  -0.50696  -0.49222  -0.47928  -0.47671
 Alpha  occ. eigenvalues --   -0.46550  -0.44571  -0.43823  -0.42963  -0.42202
 Alpha  occ. eigenvalues --   -0.41295  -0.40937  -0.39113  -0.38572  -0.38445
 Alpha  occ. eigenvalues --   -0.37580  -0.35897  -0.35295  -0.34930  -0.33755
 Alpha  occ. eigenvalues --   -0.33347  -0.30583  -0.28413  -0.25401  -0.24081
 Alpha virt. eigenvalues --    0.00726   0.02305   0.08180   0.10741   0.11478
 Alpha virt. eigenvalues --    0.12184   0.13018   0.13343   0.13946   0.15833
 Alpha virt. eigenvalues --    0.16049   0.16530   0.17144   0.17347   0.17573
 Alpha virt. eigenvalues --    0.17976   0.19037   0.19850   0.21306   0.21514
 Alpha virt. eigenvalues --    0.23184   0.24111   0.25060   0.25748   0.29227
 Alpha virt. eigenvalues --    0.29777   0.33387   0.35886   0.37964   0.39456
 Alpha virt. eigenvalues --    0.48218   0.49965   0.50663   0.51251   0.53138
 Alpha virt. eigenvalues --    0.54248   0.54715   0.55494   0.56825   0.57956
 Alpha virt. eigenvalues --    0.59817   0.61074   0.62362   0.63140   0.63825
 Alpha virt. eigenvalues --    0.64720   0.66643   0.68244   0.71040   0.71155
 Alpha virt. eigenvalues --    0.72214   0.74941   0.75937   0.77990   0.79320
 Alpha virt. eigenvalues --    0.81059   0.83515   0.83779   0.84583   0.85876
 Alpha virt. eigenvalues --    0.86205   0.86301   0.87865   0.88258   0.89433
 Alpha virt. eigenvalues --    0.89825   0.90952   0.91624   0.92649   0.93227
 Alpha virt. eigenvalues --    0.94020   0.94848   0.95385   0.98436   1.00064
 Alpha virt. eigenvalues --    1.00780   1.01487   1.03846   1.05507   1.08159
 Alpha virt. eigenvalues --    1.09792   1.13842   1.16125   1.19288   1.21989
 Alpha virt. eigenvalues --    1.25120   1.30166   1.31326   1.32025   1.36418
 Alpha virt. eigenvalues --    1.38568   1.42456   1.43652   1.46893   1.48393
 Alpha virt. eigenvalues --    1.52550   1.52743   1.59799   1.61084   1.63795
 Alpha virt. eigenvalues --    1.66484   1.70219   1.71307   1.75646   1.78189
 Alpha virt. eigenvalues --    1.79560   1.80170   1.80597   1.82817   1.84057
 Alpha virt. eigenvalues --    1.85574   1.87478   1.88702   1.89485   1.92250
 Alpha virt. eigenvalues --    1.93938   1.96225   1.97297   2.00537   2.01366
 Alpha virt. eigenvalues --    2.03440   2.03511   2.04738   2.06490   2.08099
 Alpha virt. eigenvalues --    2.10442   2.11771   2.12643   2.14990   2.17255
 Alpha virt. eigenvalues --    2.21655   2.22302   2.23674   2.26874   2.28703
 Alpha virt. eigenvalues --    2.29546   2.30646   2.31556   2.34655   2.37386
 Alpha virt. eigenvalues --    2.39919   2.42302   2.46576   2.50381   2.52420
 Alpha virt. eigenvalues --    2.53272   2.55617   2.60576   2.61869   2.64021
 Alpha virt. eigenvalues --    2.68061   2.69897   2.71688   2.78663   2.83290
 Alpha virt. eigenvalues --    2.86372   2.94707   2.97136   3.00858   3.03918
 Alpha virt. eigenvalues --    3.15988   3.21668   3.96497   4.00620   4.11454
 Alpha virt. eigenvalues --    4.19373   4.22565   4.24904   4.31329   4.32770
 Alpha virt. eigenvalues --    4.38867   4.52349   4.55622   4.61051   4.80621
          Condensed to atoms (all electrons):
               1          2          3          4          5          6
     1  C    4.903591   0.206850  -0.022427   0.003578   0.007472  -0.000188
     2  O    0.206850   8.244306   0.264246  -0.081482  -0.096171   0.003315
     3  C   -0.022427   0.264246   4.347648   0.530435   0.342166  -0.054150
     4  O    0.003578  -0.081482   0.530435   8.139713  -0.071161   0.003136
     5  C    0.007472  -0.096171   0.342166  -0.071161   4.951430   0.380195
     6  C   -0.000188   0.003315  -0.054150   0.003136   0.380195   5.156844
     7  C   -0.000276   0.002164  -0.031632  -0.001539   0.354690  -0.049905
     8  C    0.000034  -0.001203  -0.003200   0.000111  -0.047245   0.003904
     9  C    0.000017   0.000005   0.001582  -0.000092  -0.057855   0.004315
    10  N   -0.000203  -0.000256  -0.052033   0.002303   0.253703  -0.060422
    11  C   -0.000249   0.007101  -0.004279  -0.000667  -0.036839  -0.002599
    12  C    0.000008  -0.000163  -0.000319  -0.000013   0.007420  -0.000270
    13  O   -0.000073  -0.003245   0.018614  -0.002226   0.004485  -0.009460
    14  H    0.380940  -0.031203   0.004471   0.000773   0.000005   0.000001
    15  H    0.373459  -0.031178  -0.005264   0.006150   0.000002  -0.000009
    16  H    0.373673  -0.031437  -0.004364   0.005414  -0.000144   0.000015
    17  H   -0.000011   0.000079  -0.002770   0.005055  -0.026382   0.360865
    18  H   -0.000010   0.000022  -0.005077   0.001258  -0.024368   0.363119
    19  H    0.000002  -0.000039   0.005187   0.000456  -0.028382   0.362505
    20  H   -0.000142   0.000306  -0.002069   0.000681  -0.032838   0.002281
    21  H    0.000009   0.000018   0.003873  -0.000080  -0.035490  -0.006820
    22  H   -0.000025   0.005775   0.001402   0.000030  -0.002300   0.000031
    23  H   -0.000003   0.000078  -0.000045   0.000000   0.004021  -0.000085
    24  H   -0.000002  -0.000022   0.000109   0.000001   0.003736  -0.000201
    25  H   -0.000000   0.000004  -0.000041   0.000002   0.001225   0.000484
    26  H   -0.000000   0.000002   0.000001   0.000000  -0.000135   0.000009
    27  H   -0.000003   0.000108  -0.000002   0.000000  -0.000164  -0.000003
    28  H   -0.000000  -0.000001   0.000013   0.000000  -0.000179   0.000022
               7          8          9         10         11         12
     1  C   -0.000276   0.000034   0.000017  -0.000203  -0.000249   0.000008
     2  O    0.002164  -0.001203   0.000005  -0.000256   0.007101  -0.000163
     3  C   -0.031632  -0.003200   0.001582  -0.052033  -0.004279  -0.000319
     4  O   -0.001539   0.000111  -0.000092   0.002303  -0.000667  -0.000013
     5  C    0.354690  -0.047245  -0.057855   0.253703  -0.036839   0.007420
     6  C   -0.049905   0.003904   0.004315  -0.060422  -0.002599  -0.000270
     7  C    5.128446   0.357876  -0.062837  -0.055402   0.006684  -0.000266
     8  C    0.357876   5.036568   0.366244  -0.054351   0.002960  -0.000140
     9  C   -0.062837   0.366244   4.941180   0.269093  -0.025381  -0.002463
    10  N   -0.055402  -0.054351   0.269093   7.121506   0.300533  -0.118581
    11  C    0.006684   0.002960  -0.025381   0.300533   4.311764   0.361543
    12  C   -0.000266  -0.000140  -0.002463  -0.118581   0.361543   5.311528
    13  O    0.000629  -0.000178   0.003063  -0.098895   0.555605  -0.077599
    14  H   -0.000007   0.000005   0.000003   0.000002  -0.000018  -0.000001
    15  H   -0.000063   0.000012  -0.000000  -0.000024   0.000027   0.000000
    16  H    0.000016  -0.000004   0.000001  -0.000054  -0.000063   0.000002
    17  H   -0.002342   0.000046  -0.000150   0.004457   0.000205   0.000007
    18  H    0.004792  -0.000209  -0.000157  -0.008600   0.003509   0.000239
    19  H   -0.006401  -0.000112   0.000784  -0.001196  -0.000016  -0.000021
    20  H    0.368842  -0.024385   0.004663   0.003651  -0.000004   0.000005
    21  H    0.372828  -0.035904   0.001697  -0.001511  -0.000279   0.000003
    22  H   -0.034531   0.375438  -0.033532   0.000088  -0.000046  -0.000014
    23  H   -0.028182   0.369502  -0.029319   0.003960  -0.000045   0.000008
    24  H    0.004648  -0.022265   0.376915  -0.035918  -0.007061   0.004709
    25  H   -0.002945  -0.039665   0.378938  -0.046799  -0.001058   0.000040
    26  H    0.000004  -0.000008   0.000298   0.005024  -0.021859   0.353729
    27  H   -0.000002   0.000078  -0.001973   0.000329  -0.020072   0.355804
    28  H   -0.000012   0.000136   0.000499   0.001378  -0.019887   0.353637
              13         14         15         16         17         18
     1  C   -0.000073   0.380940   0.373459   0.373673  -0.000011  -0.000010
     2  O   -0.003245  -0.031203  -0.031178  -0.031437   0.000079   0.000022
     3  C    0.018614   0.004471  -0.005264  -0.004364  -0.002770  -0.005077
     4  O   -0.002226   0.000773   0.006150   0.005414   0.005055   0.001258
     5  C    0.004485   0.000005   0.000002  -0.000144  -0.026382  -0.024368
     6  C   -0.009460   0.000001  -0.000009   0.000015   0.360865   0.363119
     7  C    0.000629  -0.000007  -0.000063   0.000016  -0.002342   0.004792
     8  C   -0.000178   0.000005   0.000012  -0.000004   0.000046  -0.000209
     9  C    0.003063   0.000003  -0.000000   0.000001  -0.000150  -0.000157
    10  N   -0.098895   0.000002  -0.000024  -0.000054   0.004457  -0.008600
    11  C    0.555605  -0.000018   0.000027  -0.000063   0.000205   0.003509
    12  C   -0.077599  -0.000001   0.000000   0.000002   0.000007   0.000239
    13  O    8.177392  -0.000009   0.000003   0.000390   0.000181   0.014325
    14  H   -0.000009   0.522259  -0.029509  -0.029264  -0.000000  -0.000000
    15  H    0.000003  -0.029509   0.546695  -0.036287   0.000002  -0.000001
    16  H    0.000390  -0.029264  -0.036287   0.545374  -0.000001  -0.000001
    17  H    0.000181  -0.000000   0.000002  -0.000001   0.551346  -0.025392
    18  H    0.014325  -0.000000  -0.000001  -0.000001  -0.025392   0.534705
    19  H   -0.000005  -0.000000  -0.000000   0.000000  -0.026661  -0.026906
    20  H    0.000006  -0.000003   0.000056  -0.000002   0.000811  -0.000161
    21  H   -0.000004  -0.000000  -0.000002   0.000000   0.000084   0.000272
    22  H   -0.000005  -0.000010  -0.000017   0.000017  -0.000008   0.000009
    23  H    0.000001  -0.000000   0.000000   0.000000  -0.000002   0.000004
    24  H    0.000084  -0.000001   0.000000   0.000000   0.000004  -0.000008
    25  H   -0.000034   0.000000  -0.000000  -0.000000  -0.000035   0.000058
    26  H    0.005006   0.000000   0.000000  -0.000000  -0.000000   0.000001
    27  H    0.000946   0.000000   0.000000  -0.000001   0.000000  -0.000002
    28  H    0.001761   0.000000  -0.000000   0.000000  -0.000001  -0.000031
              19         20         21         22         23         24
     1  C    0.000002  -0.000142   0.000009  -0.000025  -0.000003  -0.000002
     2  O   -0.000039   0.000306   0.000018   0.005775   0.000078  -0.000022
     3  C    0.005187  -0.002069   0.003873   0.001402  -0.000045   0.000109
     4  O    0.000456   0.000681  -0.000080   0.000030   0.000000   0.000001
     5  C   -0.028382  -0.032838  -0.035490  -0.002300   0.004021   0.003736
     6  C    0.362505   0.002281  -0.006820   0.000031  -0.000085  -0.000201
     7  C   -0.006401   0.368842   0.372828  -0.034531  -0.028182   0.004648
     8  C   -0.000112  -0.024385  -0.035904   0.375438   0.369502  -0.022265
     9  C    0.000784   0.004663   0.001697  -0.033532  -0.029319   0.376915
    10  N   -0.001196   0.003651  -0.001511   0.000088   0.003960  -0.035918
    11  C   -0.000016  -0.000004  -0.000279  -0.000046  -0.000045  -0.007061
    12  C   -0.000021   0.000005   0.000003  -0.000014   0.000008   0.004709
    13  O   -0.000005   0.000006  -0.000004  -0.000005   0.000001   0.000084
    14  H   -0.000000  -0.000003  -0.000000  -0.000010  -0.000000  -0.000001
    15  H   -0.000000   0.000056  -0.000002  -0.000017   0.000000   0.000000
    16  H    0.000000  -0.000002   0.000000   0.000017   0.000000   0.000000
    17  H   -0.026661   0.000811   0.000084  -0.000008  -0.000002   0.000004
    18  H   -0.026906  -0.000161   0.000272   0.000009   0.000004  -0.000008
    19  H    0.562373   0.000029   0.004905  -0.000002  -0.000028  -0.000001
    20  H    0.000029   0.541049  -0.030394  -0.005789   0.000709  -0.000134
    21  H    0.004905  -0.030394   0.556531   0.004706  -0.005862  -0.000072
    22  H   -0.000002  -0.005789   0.004706   0.554031  -0.029796  -0.006765
    23  H   -0.000028   0.000709  -0.005862  -0.029796   0.553917   0.001070
    24  H   -0.000001  -0.000134  -0.000072  -0.006765   0.001070   0.542905
    25  H    0.000143  -0.000092   0.001871   0.004824  -0.003268  -0.041085
    26  H   -0.000000  -0.000000  -0.000000  -0.000000   0.000000   0.000093
    27  H    0.000000  -0.000000   0.000000   0.000004  -0.000004   0.003758
    28  H    0.000000  -0.000000   0.000000   0.000004  -0.000001  -0.001612
              25         26         27         28
     1  C   -0.000000  -0.000000  -0.000003  -0.000000
     2  O    0.000004   0.000002   0.000108  -0.000001
     3  C   -0.000041   0.000001  -0.000002   0.000013
     4  O    0.000002   0.000000   0.000000   0.000000
     5  C    0.001225  -0.000135  -0.000164  -0.000179
     6  C    0.000484   0.000009  -0.000003   0.000022
     7  C   -0.002945   0.000004  -0.000002  -0.000012
     8  C   -0.039665  -0.000008   0.000078   0.000136
     9  C    0.378938   0.000298  -0.001973   0.000499
    10  N   -0.046799   0.005024   0.000329   0.001378
    11  C   -0.001058  -0.021859  -0.020072  -0.019887
    12  C    0.000040   0.353729   0.355804   0.353637
    13  O   -0.000034   0.005006   0.000946   0.001761
    14  H    0.000000   0.000000   0.000000   0.000000
    15  H   -0.000000   0.000000   0.000000  -0.000000
    16  H   -0.000000  -0.000000  -0.000001   0.000000
    17  H   -0.000035  -0.000000   0.000000  -0.000001
    18  H    0.000058   0.000001  -0.000002  -0.000031
    19  H    0.000143  -0.000000   0.000000   0.000000
    20  H   -0.000092  -0.000000  -0.000000  -0.000000
    21  H    0.001871  -0.000000   0.000000   0.000000
    22  H    0.004824  -0.000000   0.000004   0.000004
    23  H   -0.003268   0.000000  -0.000004  -0.000001
    24  H   -0.041085   0.000093   0.003758  -0.001612
    25  H    0.578052  -0.000002  -0.000148   0.001103
    26  H   -0.000002   0.522348  -0.020647  -0.021591
    27  H   -0.000148  -0.020647   0.516554  -0.026584
    28  H    0.001103  -0.021591  -0.026584   0.524406
 Mulliken charges:
               1
     1  C   -0.226020
     2  O   -0.457978
     3  C    0.667925
     4  O   -0.541834
     5  C    0.149102
     6  C   -0.456928
     7  C   -0.325278
     8  C   -0.284045
     9  C   -0.135539
    10  N   -0.431782
    11  C    0.590489
    12  C   -0.548830
    13  O   -0.590758
    14  H    0.181565
    15  H    0.175947
    16  H    0.176720
    17  H    0.160612
    18  H    0.168612
    19  H    0.153389
    20  H    0.172925
    21  H    0.169620
    22  H    0.166482
    23  H    0.163370
    24  H    0.177115
    25  H    0.168427
    26  H    0.177729
    27  H    0.192023
    28  H    0.186939
 Sum of Mulliken charges =  -0.00000
 Mulliken charges with hydrogens summed into heavy atoms:
               1
     1  C    0.308212
     2  O   -0.457978
     3  C    0.667925
     4  O   -0.541834
     5  C    0.149102
     6  C    0.025685
     7  C    0.017268
     8  C    0.045807
     9  C    0.210003
    10  N   -0.431782
    11  C    0.590489
    12  C    0.007862
    13  O   -0.590758
 Electronic spatial extent (au):  <R**2>=           2194.9894
 Charge=             -0.0000 electrons
 Dipole moment (field-independent basis, Debye):
    X=              3.2799    Y=              3.9163    Z=             -4.9083  Tot=              7.0843
 Quadrupole moment (field-independent basis, Debye-Ang):
   XX=            -71.6395   YY=            -76.5293   ZZ=            -77.0168
   XY=              1.5592   XZ=              5.2271   YZ=              6.3489
 Traceless Quadrupole moment (field-independent basis, Debye-Ang):
   XX=              3.4224   YY=             -1.4675   ZZ=             -1.9550
   XY=              1.5592   XZ=              5.2271   YZ=              6.3489
 Octapole moment (field-independent basis, Debye-Ang**2):
  XXX=             11.6881  YYY=             10.6970  ZZZ=            -12.1724  XYY=             -3.9283
  XXY=            -10.3363  XXZ=            -27.0467  XZZ=             -2.0359  YZZ=             -0.0090
  YYZ=            -12.7564  XYZ=             -4.3169
 Hexadecapole moment (field-independent basis, Debye-Ang**3):
 XXXX=          -1224.8214 YYYY=           -917.5061 ZZZZ=           -633.3226 XXXY=              4.7799
 XXXZ=             58.4513 YYYX=             15.5830 YYYZ=             14.5645 ZZZX=             14.3665
 ZZZY=             11.6664 XXYY=           -331.3820 XXZZ=           -310.0739 YYZZ=           -260.0182
 XXYZ=             16.1213 YYXZ=             -0.2256 ZZXY=             11.1238
 N-N= 9.006168735034D+02 E-N=-3.275974989664D+03  KE= 6.266646849259D+02
 No NMR shielding tensors so no spin-rotation constants.
 Leave Link  601 at Thu Mar 30 09:48:19 2023, MaxMem=   104857600 cpu:               0.4 elap:               0.1
 (Enter /dades/curu/g16A03_MST/g16/l9999.exe)
 1\1\GINC-PIRINEUS14\SP\RB3LYP\6-31G(d)\C9H15N1O3\UBATOR01\30-Mar-2023\
 0\\#p B3LYP/6-31G(d) scrf=(iefpcm,read,solvent=water) geom=allcheck gu
 ess=read\\2Mep.n.20_WATER\\0,1\C,0,3.6209713093,1.5941936052,1.0901236
 986\O,0,2.6364431306,2.4782176447,1.6604669891\C,0,1.3801001923,2.0066
 823599,1.6920139479\O,0,1.0640371737,0.921585114,1.2432025941\C,0,0.38
 41004632,3.0324513979,2.2560656289\C,0,-0.9334475669,2.3322387591,2.60
 21592202\C,0,0.1726948398,4.1825889062,1.2223379466\C,0,1.091005124,5.
 3207341076,1.6871437002\C,0,1.0626203289,5.1922883871,3.2114349877\N,0
 ,0.9588903598,3.7394589648,3.4197752708\C,0,1.4633700831,3.0460108018,
 4.4706353535\C,0,2.0448273357,3.855259431,5.610462824\O,0,1.4532573612
 ,1.8060879416,4.4855561635\H,0,4.5647995129,2.1310119993,1.1526113101\
 H,0,3.3751620014,1.370601431,0.0509379434\H,0,3.6701480408,0.666483704
 5,1.6615015333\H,0,-1.3537531494,1.8579404848,1.7127829818\H,0,-0.7712
 962434,1.5710836163,3.365430522\H,0,-1.6452701133,3.0725951355,2.97518
 2509\H,0,0.3724647762,3.8559887488,0.1995336011\H,0,-0.8751143745,4.49
 26686804,1.2725955132\H,0,2.1087405754,5.1659832799,1.3210140051\H,0,0
 .7490559597,6.3005505574,1.3477035342\H,0,1.9585405669,5.5838045723,3.
 6937518599\H,0,0.1920328707,5.7053528427,3.6379338782\H,0,2.3042112863
 ,3.1749267149,6.4205914107\H,0,2.9484694635,4.3836226304,5.2905049975\
 H,0,1.3379386918,4.6035881807,5.9775460755\\Version=ES64L-G16RevA.03\S
 tate=1-A\HF=-632.4515578\RMSD=7.112e-09\Dipole=0.4633165,2.7211159,-0.
 386161\Quadrupole=4.5413894,-4.5034581,-0.0379313,-3.4562323,-1.653388
 7,2.9126099\PG=C01 [X(C9H15N1O3)]\\@


 A ROPE OVER THE TOP OF A FENCE HAS THE SAME LENGTH ON EACH SIDE.
 WEIGHS 1/3 POUND PER FOOT.  ON ONE END HANGS A MONKEY HOLDING A
 BANANA, AND ON THE OTHER END A WEIGHT EQUAL TO THE WEIGHT
 OF THE MONKEY.  THE BANANA WEIGHS TWO OUNCES PER INCH.
 THE ROPE IS AS LONG AS THE AGE OF THE MONKEY, 
 AND THE WEIGHT OF THE MONKEY (IN OUNCES) IS AS MUCH
 AS THE AGE OF THE MONKEY'S MOTHER.  THE COMBINED AGES OF MONKEY
 AND MOTHER ARE THIRTY YEARS.  HALF THE WEIGHT OF THE MONKEY,
  PLUS THE WEIGHT OF THE BANANA, IS ONE FOURTH AS MUCH AS THE WEIGHT
 OF THE WEIGHT AND THE ROPE.
 THE MONKEY'S MOTHER IS HALF AS OLD AS THE MONKEY WILL BE
 WHEN IT IS 3 TIMES AS OLD AS ITS MOTHER WAS WHEN
 SHE WAS HALF AS OLD AS THE MONKEY WILL BE WHEN IT IS
 AS OLD AS ITS MOTHER WILL BE WHEN SHE IS 4 TIMES AS
 OLD AS THE MONKEY WAS WHEN IT WAS TWICE AS OLD AS 
 ITS MOTHER WAS WHEN SHE WAS ONE THIRD AS OLD AS THE
 MONKEY WAS WHEN IT WAS AS OLD AS ITS MOTHER WAS WHEN 
 SHE WAS 3 TIMES AS OLD AS THE MONKEY WAS WHEN IT WAS AS OLD AS ITS
 MOTHER WAS WHEN SHE WAS 3 TIMES AS OLD AS THE MONKEY 
 WAS WHEN IT WAS ONE FOURTH WAS OLD AS IT IS NOW.

 HOW LONG IS THE BANANA?
 Job cpu time:       0 days  0 hours  7 minutes 44.4 seconds.
 Elapsed time:       0 days  0 hours  1 minutes 60.0 seconds.
 File lengths (MBytes):  RWF=    108 Int=      0 D2E=      0 Chk=     13 Scr=      1
 Normal termination of Gaussian 16 at Thu Mar 30 09:48:19 2023.
